date Tue Oct 25 14:46:19 CEST 2022
master hostname LAPTOP-9E8C2KDB
system Linux LAPTOP-9E8C2KDB 4.4.0-19041-Microsoft #1237-Microsoft Sat Sep 11 14:32:00 PST 2021 x86_64 x86_64 x86_64 GNU/Linux
user antonio
output data in /mnt/c/Users/garci/Documents/PhD/Contenido/Crystal/utils17/AAbase.outp
properties in /home/antonio/CRY2K17_ROOT/bin/Linux-ifort14_XE_emt64/std
input data in /mnt/c/Users/garci/Documents/PhD/Contenido/Crystal/utils17/ej1/AAbase.d3
temporary directory /home/antonio/tmp/tmp_p110_antonio
wave function data from /mnt/c/Users/garci/Documents/PhD/Contenido/Crystal/utils17/ej1/hBN.f9
BASISSET            
2                  
60 50             
64 50              
END

         
 *******************************************************************************
 *                                                                             *
 *                               CRYSTAL17                                     *
 *                      public : 1.0.2 - March 1st, 2018                       *
 *                       HTTP://WWW.CRYSTAL.UNITO.IT                           *
 *                                                                             *
 *                              MAIN AUTHORS                                   *
 *                                                                             *
 *  R. DOVESI(1,11), V.R. SAUNDERS(2), C. ROETTI(1,11), R. ORLANDO(1,11),      *
 *  C.M. ZICOVICH-WILSON(1,3), F. PASCALE(4), B. CIVALLERI(1,11),              *
 *  K. DOLL(5), N.M. HARRISON(2,6), I.J. BUSH(7), Ph. D'ARCO(8),               *
 *  M. LLUNELL(9), M. CAUSA'(10), Y. NOEL(8), L. MASCHIO(1,11), A. ERBA(1,11)  *
 *  M. RE'RAT(14), S. CASASSA(1,11)                                            *
 *                                                                             *
 *        CONTRIBUTIONS TO THE CODE HAVE ALSO BEEN GIVEN BY                    *
 *                                                                             *
 *  M. FERRABONE(1,11), M. DE LA PIERRE(1,11), M. FERRERO(1,11),               *
 *  J. BAIMA(1,11), E. ALBANESE(1,11), M.F. PEINTINGER(12), R. BAST(13),       *
 *  B. KIRTMAN(15), V. LACIVITA(1,11), R. DEMICHELIS(1,16)                     *
 *  G. BRANDEBURG(17), S. SALUSTRO(1,11), G. SANSONE(1,11)                     *
 *  M.T. RUGGIERO(18)                                                          *
 *                                                                             *
 * (1) THEORETICAL CHEMISTRY GROUP - UNIVERSITA' DI TORINO - TORINO (ITALY)    *
 * (2) COMPUTATIONAL SCIENCE & ENGINEERING DEPARTMENT - STFC DARESBURY (UK)    *
 * (3) UNIVERSIDAD AUTONOMA DEL ESTADO DE MORELOS - CUERNAVACA (MEXICO)        *
 * (4) UNIVERSITE' DE LORRAINE - NANCY (FRANCE)                                *
 * (5) UNIVERSITAET STUTTGART- STUTTGART (GERMANY)                             *
 * (6) IMPERIAL COLLEGE - LONDON (UK)                                          *
 * (7) OXFORD E-RESEARCH CENTRE - OXFORD (UK)                                  *
 * (8) UPMC - SORBONNE UNIVERSITES - PARIS (FRANCE)                            *
 * (9) UNIVERSIDAD DE BARCELONA - BARCELONA (SPAIN)                            *
 *(10) UNIVERSITA' DI NAPOLI "FEDERICO II" - NAPOLI (ITALY)                    *
 *(11) NIS - NANOSTRUCTURED INTERFACES AND SURFACES - TORINO (ITALY)           *
 *(12) MPI FUER CHEMISCHE ENERGIEKONVERSION - MUELHEIM AN DER RUHR (GERMANY)   *
 *(13) UNIVERSITY OF TROMSO - TROMSO (NORWAY)                                  *
 *(14) UNIVERSITE' DE PAU ET DES PAYS DE L'ADOUR - PAU (FRANCE)                *
 *(15) UNIVERSITY OF CALIFORNIA SANTA BARBARA - SANTA BARBARA (USA)            *
 *(16) CURTIN UNIVERSITY - PERTH (AUSTRALIA)                                   *
 *(17) UNIVERSITY COLLEGE LONDON - LONDON (UK)                                 *
 *(18) CAMBRIDGE UNIVERSITY - CAMBRIDGE (UK)                                   *
 *                                                                             *
 *******************************************************************************
 EEEEEEEEEE STARTING  DATE 25 10 2022 TIME 14:46:19.5

 *******************************************************************************
 hBN                                                                             
 CRYSTAL - PROPERTIES - TYPE OF CALCULATION :  RESTRICTED CLOSED SHELL
 *******************************************************************************
 KOHN-SHAM HAMILTONIAN

 (EXCHANGE)[CORRELATION] FUNCTIONAL:(HSE06 SR/GGA)[PERDEW-BURKE-ERNZERHOF]

 RANGE-SEPARATED HYBRID FUNCTIONAL 
 OMEGA (SHORT-RANGE)[LONG-RANGE]:(    0.1100)[    0.0000]

 HYBRID EXCHANGE - PERCENTAGE OF FOCK EXCHANGE    25.0000

 DIRECT LATTICE VECTOR COMPONENTS (ANGSTROM)
         2.17372   -1.25500    0.00000
         0.00000    2.51000    0.00000
         0.00000    0.00000  500.00000

 LATTICE PARAMETERS  (ANGSTROM AND DEGREES) - PRIMITIVE CELL
       A          B          C         ALPHA      BETA     GAMMA        VOLUME
    2.51000    2.51000  500.00000     90.0000   90.0000  120.0000       5.45605
 *******************************************************************************
 N. OF ATOMS PER CELL         2 COULOMB OVERLAP TOL          (T1) 10**   -8
 NUMBER OF SHELLS            16 COULOMB PENETRATION TOL      (T2) 10**   -8
 NUMBER OF AO                36 EXCHANGE OVERLAP TOL         (T3) 10**   -8
 N. OF ELECTRONS PER CELL    12 EXCHANGE PSEUDO OVP (F(G))   (T4) 10**   -8
 CORE ELECTRONS PER CELL      4 EXCHANGE PSEUDO OVP (P(G))   (T5) 10**  -16
 N. OF SYMMETRY OPERATORS     6 POLE ORDER IN MONO ZONE                   4
 *******************************************************************************
   ATOM N.AT.  SHELL    X(A)      Y(A)      Z(A)      EXAD       N.ELECT.
 *******************************************************************************
    1    5 B     8    -0.725    -1.255     0.000   7.501E-01       3.856
    2    7 N     8    -1.449     0.000     0.000   3.612E-01       8.144
 *******************************************************************************
 DE(K)                   0.000E+00  ENERGY LEVEL SHIFTING        0.60000
 TOTAL ENERGY -7.9659515128499E+01  CONVERGENCE ON ENER       -4.688E-09
 KIN. ENERGY   7.9293628205599E+01  VIR. COEFF.           1.05430476E+00
 N. OF SCF CYCLES               16  FERMI ENERGY              -0.837E+00
 WEIGHT OF F(I) IN F(I+1)      50
 SHRINK. FACT.(MONKH.)    16 16  1  SHRINKING FACTOR(GILAT NET)       16
 NUMBER OF K POINTS IN THE IBZ  30  CELL VOLUME (A.U.)         19.483896
 *******************************************************************************

 GCALCO - MAX INDICES DIRECT LATTICE VECTOR    83    83     0
 NO.OF VECTORS CREATED 6999 STARS  503 RMAX   208.53959 BOHR
 TTTTTTTTTTTTTTTTTTTTTTTTTTTTTT gordsh1     TELAPSE        0.03 TCPU        0.00

 MATRIX SIZE: P(G)   37926, F(G)    9708, P(G) IRR    4681, F(G) IRR    2628
 MAX G-VECTOR INDEX FOR 1- AND 2-ELECTRON INTEGRALS  85


 CAPPA:IS1 16;IS2 16;IS3  1; K PTS MONK NET  30; SYMMOPS:K SPACE  12;G SPACE   6


 *******************************************************************************
 hBN                                                                             
 CRYSTAL - PROPERTIES - TYPE OF CALCULATION :  RESTRICTED CLOSED SHELL
 *******************************************************************************
 KOHN-SHAM HAMILTONIAN

 (EXCHANGE)[CORRELATION] FUNCTIONAL:(HSE06 SR/GGA)[PERDEW-BURKE-ERNZERHOF]

 RANGE-SEPARATED HYBRID FUNCTIONAL 
 OMEGA (SHORT-RANGE)[LONG-RANGE]:(    0.1100)[    0.0000]

 HYBRID EXCHANGE - PERCENTAGE OF FOCK EXCHANGE    25.0000

 DIRECT LATTICE VECTOR COMPONENTS (ANGSTROM)
         2.17372   -1.25500    0.00000
         0.00000    2.51000    0.00000
         0.00000    0.00000  500.00000

 LATTICE PARAMETERS  (ANGSTROM AND DEGREES) - PRIMITIVE CELL
       A          B          C         ALPHA      BETA     GAMMA        VOLUME
    2.51000    2.51000  500.00000     90.0000   90.0000  120.0000       5.45605
 *******************************************************************************
 N. OF ATOMS PER CELL         2 COULOMB OVERLAP TOL          (T1) 10**   -8
 NUMBER OF SHELLS            16 COULOMB PENETRATION TOL      (T2) 10**   -8
 NUMBER OF AO                36 EXCHANGE OVERLAP TOL         (T3) 10**   -8
 N. OF ELECTRONS PER CELL    12 EXCHANGE PSEUDO OVP (F(G))   (T4) 10**   -8
 CORE ELECTRONS PER CELL      4 EXCHANGE PSEUDO OVP (P(G))   (T5) 10**  -16
 N. OF SYMMETRY OPERATORS     6 POLE ORDER IN MONO ZONE                   4
 *******************************************************************************
   ATOM N.AT.  SHELL    X(A)      Y(A)      Z(A)      EXAD       N.ELECT.
 *******************************************************************************
    1    5 B     8    -0.725    -1.255     0.000   7.501E-01       3.856
    2    7 N     8    -1.449     0.000     0.000   3.612E-01       8.144
 *******************************************************************************
 DE(K)                   0.000E+00  ENERGY LEVEL SHIFTING        0.60000
 TOTAL ENERGY -7.9659515128499E+01  CONVERGENCE ON ENER       -4.688E-09
 KIN. ENERGY   7.9293628205599E+01  VIR. COEFF.           1.05430476E+00
 N. OF SCF CYCLES               16  FERMI ENERGY              -0.144E+01
 WEIGHT OF F(I) IN F(I+1)      50
 SHRINK. FACT.(MONKH.)    16 16  1  SHRINKING FACTOR(GILAT NET)       16
 NUMBER OF K POINTS IN THE IBZ  30  CELL VOLUME (A.U.)         19.483896
 *******************************************************************************

 *******************************************************************************
 LOCAL ATOMIC FUNCTIONS BASIS SET
 *******************************************************************************
   ATOM   X(AU)   Y(AU)   Z(AU)  N. TYPE  EXPONENT  S COEF   P COEF   D/F/G COEF
 *******************************************************************************
   1 B   -1.369  -2.372   0.000
                                  1 S  
                                         8.565E+03 9.839E-01 0.000E+00 0.000E+00
                                         1.284E+03 1.836E+00 0.000E+00 0.000E+00
                                         2.923E+02 3.127E+00 0.000E+00 0.000E+00
                                         8.278E+01 4.826E+00 0.000E+00 0.000E+00
                                         2.702E+01 6.344E+00 0.000E+00 0.000E+00
                                         9.815E+00 6.270E+00 0.000E+00 0.000E+00
                                  2 S  
                                         3.932E+00 3.250E+00 0.000E+00 0.000E+00
                                         1.660E+00 9.086E-01 0.000E+00 0.000E+00
                                  3 S  
                                         5.332E-01 1.082E+00 0.000E+00 0.000E+00
                                  4 S  
                                         2.066E-01 5.312E-01 0.000E+00 0.000E+00
                           5-     7 P  
                                         2.245E+01 0.000E+00 1.896E+00 0.000E+00
                                         5.105E+00 0.000E+00 1.942E+00 0.000E+00
                                         1.499E+00 0.000E+00 1.683E+00 0.000E+00
                                         5.093E-01 0.000E+00 1.102E+00 0.000E+00
                           8-    10 P  
                                         5.386E-01 0.000E+00 1.599E+00 0.000E+00
                          11-    13 P  
                                         2.093E-01 0.000E+00 4.907E-01 0.000E+00
                          14-    18 D  
                                         7.501E-01 0.000E+00 0.000E+00 2.420E+00
   2 N   -2.738   0.000   0.000
                                 19 S  
                                         1.973E+04 1.692E+00 0.000E+00 0.000E+00
                                         2.958E+03 3.158E+00 0.000E+00 0.000E+00
                                         6.732E+02 5.397E+00 0.000E+00 0.000E+00
                                         1.907E+02 8.424E+00 0.000E+00 0.000E+00
                                         6.230E+01 1.142E+01 0.000E+00 0.000E+00
                                         2.265E+01 1.204E+01 0.000E+00 0.000E+00
                                 20 S  
                                         8.979E+00 5.808E+00 0.000E+00 0.000E+00
                                         3.686E+00 1.785E+00 0.000E+00 0.000E+00
                                 21 S  
                                         7.865E-01 1.448E+00 0.000E+00 0.000E+00
                                 22 S  
                                         2.678E-01 6.453E-01 0.000E+00 0.000E+00
                          23-    25 P  
                                         4.920E+01 0.000E+00 5.172E+00 0.000E+00
                                         1.135E+01 0.000E+00 5.662E+00 0.000E+00
                                         3.427E+00 0.000E+00 4.982E+00 0.000E+00
                                         1.179E+00 0.000E+00 3.066E+00 0.000E+00
                          26-    28 P  
                                         3.780E-01 0.000E+00 1.028E+00 0.000E+00
                          29-    31 P  
                                         1.474E-01 0.000E+00 3.165E-01 0.000E+00
                          32-    36 D  
                                         3.612E-01 0.000E+00 0.000E+00 6.738E-01

 OVERLAP MATRIX - CELL N.   1(  0  0  0)

              1           2           3           4           5           6           7           8           9          10

   1     1.0000E+00
   2     6.8863E-01  1.0000E+00
   3     2.4359E-01  6.3565E-01  1.0000E+00
   4     1.2468E-01  3.7125E-01  8.4994E-01  1.0000E+00
   5     0.0000E+00  0.0000E+00  0.0000E+00  0.0000E+00  1.0000E+00
   6     0.0000E+00  0.0000E+00  0.0000E+00  0.0000E+00  0.0000E+00  1.0000E+00
   7     0.0000E+00  0.0000E+00  0.0000E+00  0.0000E+00  0.0000E+00  0.0000E+00  1.0000E+00
   8     0.0000E+00  0.0000E+00  0.0000E+00  0.0000E+00  9.7201E-01  0.0000E+00  0.0000E+00  1.0000E+00
   9     0.0000E+00  0.0000E+00  0.0000E+00  0.0000E+00  0.0000E+00  9.7201E-01  0.0000E+00  0.0000E+00  1.0000E+00
  10     0.0000E+00  0.0000E+00  0.0000E+00  0.0000E+00  0.0000E+00  0.0000E+00  9.7201E-01  0.0000E+00  0.0000E+00  1.0000E+00
  11     0.0000E+00  0.0000E+00  0.0000E+00  0.0000E+00  6.9068E-01  0.0000E+00  0.0000E+00  7.6385E-01  0.0000E+00  0.0000E+00
  12     0.0000E+00  0.0000E+00  0.0000E+00  0.0000E+00  0.0000E+00  6.9068E-01  0.0000E+00  0.0000E+00  7.6385E-01  0.0000E+00
  13     0.0000E+00  0.0000E+00  0.0000E+00  0.0000E+00  0.0000E+00  0.0000E+00  6.9068E-01  0.0000E+00  0.0000E+00  7.6385E-01
  14     0.0000E+00  0.0000E+00  0.0000E+00  0.0000E+00  0.0000E+00  0.0000E+00  0.0000E+00  0.0000E+00  0.0000E+00  0.0000E+00
  15     0.0000E+00  0.0000E+00  0.0000E+00  0.0000E+00  0.0000E+00  0.0000E+00  0.0000E+00  0.0000E+00  0.0000E+00  0.0000E+00
  16     0.0000E+00  0.0000E+00  0.0000E+00  0.0000E+00  0.0000E+00  0.0000E+00  0.0000E+00  0.0000E+00  0.0000E+00  0.0000E+00
  17     0.0000E+00  0.0000E+00  0.0000E+00  0.0000E+00  0.0000E+00  0.0000E+00  0.0000E+00  0.0000E+00  0.0000E+00  0.0000E+00
  18     0.0000E+00  0.0000E+00  0.0000E+00  0.0000E+00  0.0000E+00  0.0000E+00  0.0000E+00  0.0000E+00  0.0000E+00  0.0000E+00
  19     0.0000E+00  9.0742E-07  2.7180E-03  1.4710E-02 -4.4313E-03  7.6752E-03  0.0000E+00 -5.1850E-03  8.9807E-03  0.0000E+00
  20     0.0000E+00  2.7241E-05  1.0999E-02  4.9732E-02 -1.6339E-02  2.8300E-02  0.0000E+00 -1.9415E-02  3.3628E-02  0.0000E+00
  21     1.2707E-03  9.0867E-03  8.9703E-02  2.1442E-01 -9.0062E-02  1.5599E-01  0.0000E+00 -1.0564E-01  1.8297E-01  0.0000E+00
  22     2.1121E-02  7.1591E-02  2.4073E-01  4.1181E-01 -1.4110E-01  2.4439E-01  0.0000E+00 -1.5955E-01  2.7635E-01  0.0000E+00
  23     2.6519E-04  3.4927E-03  4.1814E-02  5.8286E-02 -1.4402E-02  8.4811E-02  0.0000E+00 -1.7319E-02  1.0135E-01  0.0000E+00
  24    -4.5933E-04 -6.0495E-03 -7.2424E-02 -1.0095E-01  8.4811E-02 -1.1233E-01  0.0000E+00  1.0135E-01 -1.3435E-01  0.0000E+00
  25     0.0000E+00  0.0000E+00  0.0000E+00  0.0000E+00  0.0000E+00  0.0000E+00  3.4563E-02  0.0000E+00  0.0000E+00  4.1197E-02
  26     2.0110E-02  6.6536E-02  1.8345E-01  2.0424E-01  2.3701E-02  2.3564E-01  0.0000E+00  3.0385E-02  2.6230E-01  0.0000E+00
  27    -3.4832E-02 -1.1524E-01 -3.1774E-01 -3.5375E-01  2.3564E-01 -2.4839E-01  0.0000E+00  2.6230E-01 -2.7249E-01  0.0000E+00
  28     0.0000E+00  0.0000E+00  0.0000E+00  0.0000E+00  0.0000E+00  0.0000E+00  1.5975E-01  0.0000E+00  0.0000E+00  1.8182E-01
  29     3.3994E-02  1.0427E-01  2.5906E-01  3.1513E-01  1.2781E-01  1.7252E-01  0.0000E+00  1.4537E-01  1.9296E-01  0.0000E+00
  30    -5.8878E-02 -1.8060E-01 -4.4871E-01 -5.4582E-01  1.7252E-01 -7.1391E-02  0.0000E+00  1.9296E-01 -7.7442E-02  0.0000E+00
  31     0.0000E+00  0.0000E+00  0.0000E+00  0.0000E+00  0.0000E+00  0.0000E+00  2.2742E-01  0.0000E+00  0.0000E+00  2.5678E-01
  32    -3.9533E-02 -1.1582E-01 -2.1495E-01 -1.4586E-01  6.5530E-02 -1.1350E-01  0.0000E+00  6.6474E-02 -1.1514E-01  0.0000E+00
  33     0.0000E+00  0.0000E+00  0.0000E+00  0.0000E+00  0.0000E+00  0.0000E+00  1.6656E-01  0.0000E+00  0.0000E+00  1.8527E-01
  34     0.0000E+00  0.0000E+00  0.0000E+00  0.0000E+00  0.0000E+00  0.0000E+00 -2.8850E-01  0.0000E+00  0.0000E+00 -3.2090E-01
  35    -3.4237E-02 -1.0030E-01 -1.8616E-01 -1.2632E-01  3.0659E-01  4.5954E-02  0.0000E+00  3.3547E-01  6.0736E-02  0.0000E+00
  36    -5.9300E-02 -1.7373E-01 -3.2243E-01 -2.1879E-01 -4.5954E-02 -2.5353E-01  0.0000E+00 -6.0736E-02 -2.6534E-01  0.0000E+00

             11          12          13          14          15          16          17          18          19          20

  11     1.0000E+00
  12     0.0000E+00  1.0000E+00
  13     0.0000E+00  0.0000E+00  1.0000E+00
  14     0.0000E+00  0.0000E+00  0.0000E+00  1.0000E+00
  15     0.0000E+00  0.0000E+00  0.0000E+00  0.0000E+00  1.0000E+00
  16     0.0000E+00  0.0000E+00  0.0000E+00  0.0000E+00  0.0000E+00  1.0000E+00
  17     0.0000E+00  0.0000E+00  0.0000E+00  0.0000E+00  0.0000E+00  0.0000E+00  1.0000E+00
  18     0.0000E+00  0.0000E+00  0.0000E+00  0.0000E+00  0.0000E+00  0.0000E+00  0.0000E+00  1.0000E+00
  19    -1.8094E-02  3.1340E-02  0.0000E+00 -4.5206E-03  0.0000E+00  0.0000E+00 -3.9150E-03 -6.7810E-03  1.0000E+00
  20    -5.9269E-02  1.0266E-01  0.0000E+00 -1.8264E-02  0.0000E+00  0.0000E+00 -1.5817E-02 -2.7397E-02  6.8327E-01  1.0000E+00
  21    -2.1070E-01  3.6494E-01  0.0000E+00 -9.5561E-02  0.0000E+00  0.0000E+00 -8.2759E-02 -1.4334E-01  1.8049E-01  5.1648E-01
  22    -2.8810E-01  4.9900E-01  0.0000E+00 -8.4586E-02  0.0000E+00  0.0000E+00 -7.3254E-02 -1.2688E-01  8.2829E-02  2.6335E-01
  23     3.0311E-02  1.0918E-01  0.0000E+00 -5.1094E-02  0.0000E+00  0.0000E+00 -9.6323E-02 -4.6576E-02  0.0000E+00  0.0000E+00
  24     1.0918E-01 -9.5756E-02  0.0000E+00  8.8497E-02  0.0000E+00  0.0000E+00  4.6576E-02  1.5010E-01  0.0000E+00  0.0000E+00
  25     0.0000E+00  0.0000E+00  9.3345E-02  0.0000E+00 -3.4716E-02  6.0130E-02  0.0000E+00  0.0000E+00  0.0000E+00  0.0000E+00
  26     1.6180E-01  2.8605E-01  0.0000E+00 -5.3392E-02  0.0000E+00  0.0000E+00 -2.0299E-01  1.0410E-02  0.0000E+00  0.0000E+00
  27     2.8605E-01 -1.6850E-01  0.0000E+00  9.2478E-02  0.0000E+00  0.0000E+00 -1.0410E-02  1.9097E-01  0.0000E+00  0.0000E+00
  28     0.0000E+00  0.0000E+00  3.2696E-01  0.0000E+00 -1.0450E-01  1.8100E-01  0.0000E+00  0.0000E+00  0.0000E+00  0.0000E+00
  29     3.4003E-01  2.8261E-01  0.0000E+00  3.2201E-03  0.0000E+00  0.0000E+00 -1.0682E-01  6.8113E-02  0.0000E+00  0.0000E+00
  30     2.8261E-01  1.3702E-02  0.0000E+00 -5.5774E-03  0.0000E+00  0.0000E+00 -6.8113E-02  2.8171E-02  0.0000E+00  0.0000E+00
  31     0.0000E+00  0.0000E+00  5.0320E-01  0.0000E+00 -7.3073E-02  1.2657E-01  0.0000E+00  0.0000E+00  0.0000E+00  0.0000E+00
  32    -7.3401E-04  1.2713E-03  0.0000E+00  1.1447E-01  0.0000E+00  0.0000E+00 -1.1578E-02 -2.0054E-02  0.0000E+00  0.0000E+00
  33     0.0000E+00  0.0000E+00  2.0387E-01  0.0000E+00  1.0968E-02  2.0243E-01  0.0000E+00  0.0000E+00  0.0000E+00  0.0000E+00
  34     0.0000E+00  0.0000E+00 -3.5312E-01  0.0000E+00  2.0243E-01 -2.2278E-01  0.0000E+00  0.0000E+00  0.0000E+00  0.0000E+00
  35     3.0517E-01  1.7766E-01  0.0000E+00 -1.1578E-02  0.0000E+00  0.0000E+00 -2.3281E-01  1.8507E-01  0.0000E+00  0.0000E+00
  36    -1.7766E-01 -1.0003E-01  0.0000E+00 -2.0054E-02  0.0000E+00  0.0000E+00  1.8507E-01 -1.9113E-02  0.0000E+00  0.0000E+00

             21          22          23          24          25          26          27          28          29          30

  21     1.0000E+00
  22     8.1231E-01  1.0000E+00
  23     0.0000E+00  0.0000E+00  1.0000E+00
  24     0.0000E+00  0.0000E+00  0.0000E+00  1.0000E+00
  25     0.0000E+00  0.0000E+00  0.0000E+00  0.0000E+00  1.0000E+00
  26     0.0000E+00  0.0000E+00  5.8188E-01  0.0000E+00  0.0000E+00  1.0000E+00
  27     0.0000E+00  0.0000E+00  0.0000E+00  5.8188E-01  0.0000E+00  0.0000E+00  1.0000E+00
  28     0.0000E+00  0.0000E+00  0.0000E+00  0.0000E+00  5.8188E-01  0.0000E+00  0.0000E+00  1.0000E+00
  29     0.0000E+00  0.0000E+00  2.5832E-01  0.0000E+00  0.0000E+00  7.6518E-01  0.0000E+00  0.0000E+00  1.0000E+00
  30     0.0000E+00  0.0000E+00  0.0000E+00  2.5832E-01  0.0000E+00  0.0000E+00  7.6518E-01  0.0000E+00  0.0000E+00  1.0000E+00
  31     0.0000E+00  0.0000E+00  0.0000E+00  0.0000E+00  2.5832E-01  0.0000E+00  0.0000E+00  7.6518E-01  0.0000E+00  0.0000E+00
  32     0.0000E+00  0.0000E+00  0.0000E+00  0.0000E+00  0.0000E+00  0.0000E+00  0.0000E+00  0.0000E+00  0.0000E+00  0.0000E+00
  33     0.0000E+00  0.0000E+00  0.0000E+00  0.0000E+00  0.0000E+00  0.0000E+00  0.0000E+00  0.0000E+00  0.0000E+00  0.0000E+00
  34     0.0000E+00  0.0000E+00  0.0000E+00  0.0000E+00  0.0000E+00  0.0000E+00  0.0000E+00  0.0000E+00  0.0000E+00  0.0000E+00
  35     0.0000E+00  0.0000E+00  0.0000E+00  0.0000E+00  0.0000E+00  0.0000E+00  0.0000E+00  0.0000E+00  0.0000E+00  0.0000E+00
  36     0.0000E+00  0.0000E+00  0.0000E+00  0.0000E+00  0.0000E+00  0.0000E+00  0.0000E+00  0.0000E+00  0.0000E+00  0.0000E+00

             31          32          33          34          35          36
  31     1.0000E+00
  32     0.0000E+00  1.0000E+00
  33     0.0000E+00  0.0000E+00  1.0000E+00
  34     0.0000E+00  0.0000E+00  0.0000E+00  1.0000E+00
  35     0.0000E+00  0.0000E+00  0.0000E+00  0.0000E+00  1.0000E+00
  36     0.0000E+00  0.0000E+00  0.0000E+00  0.0000E+00  0.0000E+00  1.0000E+00

 OVERLAP MATRIX - CELL N.   2( -1 -1  0)

              1           2           3           4           5           6           7           8           9          10

   1     0.0000E+00
   2     0.0000E+00  0.0000E+00
   3     2.5907E-06  4.1562E-05  2.4841E-03
   4     1.2979E-03  5.1890E-03  2.9821E-02  9.7884E-02
   5    -1.6977E-05 -1.9601E-04 -6.4066E-03 -4.2834E-02 -1.4189E-02
   6    -9.8015E-06 -1.1317E-04 -3.6988E-03 -2.4730E-02 -9.2517E-03 -3.5065E-03
   7     0.0000E+00  0.0000E+00  0.0000E+00  0.0000E+00  0.0000E+00  0.0000E+00  1.8350E-03
   8    -1.3425E-05 -1.8257E-04 -7.2294E-03 -4.9216E-02 -1.6378E-02 -1.0653E-02  0.0000E+00 -1.8909E-02
   9    -7.7511E-06 -1.0541E-04 -4.1739E-03 -2.8415E-02 -1.0653E-02 -4.0768E-03  0.0000E+00 -1.2267E-02 -4.7443E-03
  10     0.0000E+00  0.0000E+00  0.0000E+00  0.0000E+00  0.0000E+00  0.0000E+00  2.0737E-03  0.0000E+00  0.0000E+00  2.3380E-03
  11    -4.5601E-03 -1.7107E-02 -7.8334E-02 -1.8001E-01 -9.1751E-02 -6.5896E-02  0.0000E+00 -1.0512E-01 -7.5545E-02  0.0000E+00
  12    -2.6328E-03 -9.8765E-03 -4.5226E-02 -1.0393E-01 -6.5896E-02 -1.5661E-02  0.0000E+00 -7.5545E-02 -1.7891E-02  0.0000E+00
  13     0.0000E+00  0.0000E+00  0.0000E+00  0.0000E+00  0.0000E+00  0.0000E+00  2.2384E-02  0.0000E+00  0.0000E+00  2.5725E-02
  14    -7.1435E-07 -3.0535E-05 -2.9673E-03 -1.7736E-02 -7.5122E-03 -4.3372E-03  0.0000E+00 -8.6876E-03 -5.0158E-03  0.0000E+00
  15     0.0000E+00  0.0000E+00  0.0000E+00  0.0000E+00  0.0000E+00  0.0000E+00 -2.2221E-03  0.0000E+00  0.0000E+00 -2.4860E-03
  16     0.0000E+00  0.0000E+00  0.0000E+00  0.0000E+00  0.0000E+00  0.0000E+00 -1.2829E-03  0.0000E+00  0.0000E+00 -1.4353E-03
  17     6.1864E-07  2.6444E-05  2.5697E-03  1.5360E-02  5.3947E-03  5.6805E-03  0.0000E+00  6.2807E-03  6.4968E-03  0.0000E+00
  18     1.0715E-06  4.5803E-05  4.4509E-03  2.6604E-02  1.1910E-02  5.3947E-03  0.0000E+00  1.3749E-02  6.2807E-03  0.0000E+00
  19     0.0000E+00  0.0000E+00  2.1369E-08  1.4620E-04  1.1656E-07  2.0189E-07  0.0000E+00  7.2546E-08  1.2565E-07  0.0000E+00
  20     0.0000E+00  0.0000E+00  2.3498E-07  5.7252E-04  1.0492E-06  1.8172E-06  0.0000E+00  7.4314E-07  1.2872E-06  0.0000E+00
  21     0.0000E+00  3.7403E-08  7.0456E-05  5.4026E-03  1.5911E-04  2.7559E-04  0.0000E+00  1.5898E-04  2.7536E-04  0.0000E+00
  22     5.8699E-05  3.2859E-04  4.3626E-03  2.9867E-02  4.9736E-03  8.6145E-03  0.0000E+00  5.7055E-03  9.8823E-03  0.0000E+00
  23     0.0000E+00  0.0000E+00 -1.9854E-05 -2.1403E-03 -4.4199E-05 -9.4143E-05  0.0000E+00 -4.2131E-05 -8.8972E-05  0.0000E+00
  24     0.0000E+00  0.0000E+00 -3.4388E-05 -3.7071E-03 -9.4143E-05 -1.5291E-04  0.0000E+00 -8.8972E-05 -1.4487E-04  0.0000E+00
  25     0.0000E+00  0.0000E+00  0.0000E+00  0.0000E+00  0.0000E+00  0.0000E+00  1.0154E-05  0.0000E+00  0.0000E+00  9.2375E-06
  26    -1.0736E-05 -9.3906E-05 -2.5307E-03 -2.0226E-02 -2.4862E-03 -6.1965E-03  0.0000E+00 -2.8640E-03 -7.0883E-03  0.0000E+00
  27    -1.8595E-05 -1.6265E-04 -4.3833E-03 -3.5032E-02 -6.1965E-03 -9.6413E-03  0.0000E+00 -7.0883E-03 -1.1049E-02  0.0000E+00
  28     0.0000E+00  0.0000E+00  0.0000E+00  0.0000E+00  0.0000E+00  0.0000E+00  1.0914E-03  0.0000E+00  0.0000E+00  1.2284E-03
  29    -2.5760E-03 -9.2134E-03 -3.8578E-02 -9.1014E-02 -1.2266E-02 -4.9989E-02  0.0000E+00 -1.3982E-02 -5.7147E-02  0.0000E+00
  30    -4.4618E-03 -1.5958E-02 -6.6820E-02 -1.5764E-01 -4.9989E-02 -6.9988E-02  0.0000E+00 -5.7147E-02 -7.9970E-02  0.0000E+00
  31     0.0000E+00  0.0000E+00  0.0000E+00  0.0000E+00  0.0000E+00  0.0000E+00  1.6596E-02  0.0000E+00  0.0000E+00  1.9012E-02
  32    -6.0098E-05 -4.1987E-04 -6.7666E-03 -3.0328E-02 -7.7856E-03 -1.3485E-02  0.0000E+00 -9.0561E-03 -1.5686E-02  0.0000E+00
  33     0.0000E+00  0.0000E+00  0.0000E+00  0.0000E+00  0.0000E+00  0.0000E+00 -2.4932E-03  0.0000E+00  0.0000E+00 -2.8593E-03
  34     0.0000E+00  0.0000E+00  0.0000E+00  0.0000E+00  0.0000E+00  0.0000E+00 -4.3183E-03  0.0000E+00  0.0000E+00 -4.9525E-03
  35    -5.2046E-05 -3.6362E-04 -5.8601E-03 -2.6265E-02 -1.0482E-02 -9.5193E-03  0.0000E+00 -1.2132E-02 -1.1108E-02  0.0000E+00
  36     9.0147E-05  6.2981E-04  1.0150E-02  4.5492E-02  9.5193E-03  2.1474E-02  0.0000E+00  1.1108E-02  2.4958E-02  0.0000E+00

             11          12          13          14          15          16          17          18          19          20

  11    -2.4039E-01
  12    -1.9361E-01 -1.6822E-02
  13     0.0000E+00  0.0000E+00  9.4961E-02
  14    -3.7530E-02 -2.1668E-02  0.0000E+00  4.1382E-03
  15     0.0000E+00  0.0000E+00 -2.4243E-02  0.0000E+00 -2.5248E-03
  16     0.0000E+00  0.0000E+00 -1.3997E-02  0.0000E+00 -1.5827E-03 -6.9719E-04
  17     2.0381E-02  3.9760E-02  0.0000E+00 -3.3962E-03  0.0000E+00  0.0000E+00  4.1647E-04
  18     6.3294E-02  2.0381E-02  0.0000E+00 -5.8825E-03  0.0000E+00  0.0000E+00  6.6771E-03  8.1265E-03
  19     3.3882E-04  5.8686E-04  0.0000E+00  0.0000E+00  0.0000E+00  0.0000E+00  0.0000E+00  0.0000E+00  0.0000E+00
  20     1.2890E-03  2.2326E-03  0.0000E+00  0.0000E+00  0.0000E+00  0.0000E+00  0.0000E+00  0.0000E+00  0.0000E+00  0.0000E+00
  21     1.0222E-02  1.7705E-02  0.0000E+00 -6.7766E-05  0.0000E+00  0.0000E+00 -5.8687E-05  1.0165E-04  0.0000E+00  1.4151E-07
  22     4.0994E-02  7.1003E-02  0.0000E+00 -3.9919E-03  0.0000E+00  0.0000E+00 -3.4571E-03  5.9879E-03  2.1293E-04  8.6246E-04
  23    -2.7687E-03 -7.6344E-03  0.0000E+00  1.5472E-05  0.0000E+00  0.0000E+00  1.6548E-05 -2.1389E-05  0.0000E+00  0.0000E+00
  24    -7.6344E-03 -1.1584E-02  0.0000E+00  2.6798E-05  0.0000E+00  0.0000E+00  2.1389E-05 -4.1247E-05  0.0000E+00  0.0000E+00
  25     0.0000E+00  0.0000E+00  1.6390E-03  0.0000E+00  2.0997E-06  3.6368E-06  0.0000E+00  0.0000E+00  0.0000E+00  0.0000E+00
  26    -1.6109E-02 -5.5244E-02  0.0000E+00  2.7622E-03  0.0000E+00  0.0000E+00  3.4894E-03 -3.5097E-03 -1.2139E-04 -5.7142E-04
  27    -5.5244E-02 -7.9899E-02  0.0000E+00  4.7842E-03  0.0000E+00  0.0000E+00  3.5097E-03 -7.5421E-03 -7.0082E-05 -3.2991E-04
  28     0.0000E+00  0.0000E+00  1.5786E-02  0.0000E+00  7.3154E-04  1.2671E-03  0.0000E+00  0.0000E+00  0.0000E+00  0.0000E+00
  29    -2.1360E-02 -1.6155E-01  0.0000E+00  1.4233E-02  0.0000E+00  0.0000E+00  2.6049E-02 -1.3427E-02 -6.1832E-03 -2.1264E-02
  30    -1.6155E-01 -2.0790E-01  0.0000E+00  2.4652E-02  0.0000E+00  0.0000E+00  1.3427E-02 -4.1553E-02 -3.5698E-03 -1.2277E-02
  31     0.0000E+00  0.0000E+00  7.1912E-02  0.0000E+00  9.1485E-03  1.5846E-02  0.0000E+00  0.0000E+00  0.0000E+00  0.0000E+00
  32    -3.5527E-02 -6.1535E-02  0.0000E+00  7.3988E-03  0.0000E+00  0.0000E+00  5.9484E-03 -1.0303E-02 -3.1090E-04 -1.3343E-03
  33     0.0000E+00  0.0000E+00 -2.0684E-02  0.0000E+00 -1.4087E-03 -3.3583E-03  0.0000E+00  0.0000E+00  0.0000E+00  0.0000E+00
  34     0.0000E+00  0.0000E+00 -3.5825E-02  0.0000E+00 -3.3583E-03 -5.2866E-03  0.0000E+00  0.0000E+00  0.0000E+00  0.0000E+00
  35    -6.1793E-02 -3.5378E-02  0.0000E+00  5.9484E-03  0.0000E+00  0.0000E+00 -1.3515E-04 -1.2281E-02  2.6925E-04  1.1555E-03
  36     3.5378E-02  1.0264E-01  0.0000E+00 -1.0303E-02  0.0000E+00  0.0000E+00 -1.2281E-02  1.4046E-02  4.6636E-04  2.0014E-03

             21          22          23          24          25          26          27          28          29          30

  21     1.4370E-04
  22     9.0724E-03  4.9169E-02
  23    -6.1691E-05 -6.5056E-03 -1.7142E-05
  24    -3.5617E-05 -3.7560E-03 -1.0421E-05 -5.1093E-06
  25     0.0000E+00  0.0000E+00  0.0000E+00  0.0000E+00  9.0721E-07
  26    -9.8972E-03 -6.0234E-02 -7.2252E-03 -4.6480E-03  0.0000E+00 -7.6532E-02
  27    -5.7142E-03 -3.4776E-02 -4.6480E-03 -1.8581E-03  0.0000E+00 -5.2400E-02 -1.6025E-02
  28     0.0000E+00  0.0000E+00  0.0000E+00  0.0000E+00  8.2540E-04  0.0000E+00  0.0000E+00  1.4229E-02
  29    -1.0133E-01 -2.2439E-01 -4.5628E-02 -3.3964E-02  0.0000E+00 -1.8158E-01 -1.4550E-01  0.0000E+00 -2.8330E-01
  30    -5.8505E-02 -1.2955E-01 -3.3964E-02 -6.4098E-03  0.0000E+00 -1.4550E-01 -1.3576E-02  0.0000E+00 -2.7359E-01  3.2614E-02
  31     0.0000E+00  0.0000E+00  0.0000E+00  0.0000E+00  1.3199E-02  0.0000E+00  0.0000E+00  7.0427E-02  0.0000E+00  0.0000E+00
  32    -1.5043E-02 -5.2575E-02 -1.1684E-02 -6.7457E-03  0.0000E+00 -7.2056E-02 -4.1601E-02  0.0000E+00 -8.3283E-02 -4.8084E-02
  33     0.0000E+00  0.0000E+00  0.0000E+00  0.0000E+00 -3.8227E-03  0.0000E+00  0.0000E+00 -3.9547E-02  0.0000E+00  0.0000E+00
  34     0.0000E+00  0.0000E+00  0.0000E+00  0.0000E+00 -2.2070E-03  0.0000E+00  0.0000E+00 -2.2833E-02  0.0000E+00  0.0000E+00
  35     1.3028E-02  4.5531E-02  8.2073E-03  9.1526E-03  0.0000E+00  4.2629E-02  7.0277E-02  0.0000E+00  1.8888E-02  1.3385E-01
  36     2.2565E-02  7.8863E-02  1.8629E-02  8.2073E-03  0.0000E+00  1.1950E-01  4.2629E-02  0.0000E+00  1.5566E-01  1.8888E-02

             31          32          33          34          35          36
  31     1.9057E-01
  32     0.0000E+00  6.5232E-02
  33    -1.0647E-01  0.0000E+00 -8.7582E-02
  34    -6.1473E-02  0.0000E+00 -6.0490E-02 -1.7735E-02
  35     0.0000E+00 -4.1606E-02  0.0000E+00  0.0000E+00 -5.1550E-02
  36     0.0000E+00 -7.2064E-02  0.0000E+00  0.0000E+00  1.2290E-01  9.0362E-02

 OVERLAP MATRIX - CELL N.   3(  1  1  0)

              1           2           3           4           5           6           7           8           9          10

   1     0.0000E+00
   2     0.0000E+00  0.0000E+00
   3     2.5907E-06  4.1562E-05  2.4841E-03
   4     1.2979E-03  5.1890E-03  2.9821E-02  9.7884E-02
   5     1.6977E-05  1.9601E-04  6.4066E-03  4.2834E-02 -1.4189E-02
   6     9.8015E-06  1.1317E-04  3.6988E-03  2.4730E-02 -9.2517E-03 -3.5065E-03
   7     0.0000E+00  0.0000E+00  0.0000E+00  0.0000E+00  0.0000E+00  0.0000E+00  1.8350E-03
   8     1.3425E-05  1.8257E-04  7.2294E-03  4.9216E-02 -1.6378E-02 -1.0653E-02  0.0000E+00 -1.8909E-02
   9     7.7511E-06  1.0541E-04  4.1739E-03  2.8415E-02 -1.0653E-02 -4.0768E-03  0.0000E+00 -1.2267E-02 -4.7443E-03
  10     0.0000E+00  0.0000E+00  0.0000E+00  0.0000E+00  0.0000E+00  0.0000E+00  2.0737E-03  0.0000E+00  0.0000E+00  2.3380E-03
  11     4.5601E-03  1.7107E-02  7.8334E-02  1.8001E-01 -9.1751E-02 -6.5896E-02  0.0000E+00 -1.0512E-01 -7.5545E-02  0.0000E+00
  12     2.6328E-03  9.8765E-03  4.5226E-02  1.0393E-01 -6.5896E-02 -1.5661E-02  0.0000E+00 -7.5545E-02 -1.7891E-02  0.0000E+00
  13     0.0000E+00  0.0000E+00  0.0000E+00  0.0000E+00  0.0000E+00  0.0000E+00  2.2384E-02  0.0000E+00  0.0000E+00  2.5725E-02
  14    -7.1435E-07 -3.0535E-05 -2.9673E-03 -1.7736E-02  7.5122E-03  4.3372E-03  0.0000E+00  8.6876E-03  5.0158E-03  0.0000E+00
  15     0.0000E+00  0.0000E+00  0.0000E+00  0.0000E+00  0.0000E+00  0.0000E+00  2.2221E-03  0.0000E+00  0.0000E+00  2.4860E-03
  16     0.0000E+00  0.0000E+00  0.0000E+00  0.0000E+00  0.0000E+00  0.0000E+00  1.2829E-03  0.0000E+00  0.0000E+00  1.4353E-03
  17     6.1864E-07  2.6444E-05  2.5697E-03  1.5360E-02 -5.3947E-03 -5.6805E-03  0.0000E+00 -6.2807E-03 -6.4968E-03  0.0000E+00
  18     1.0715E-06  4.5803E-05  4.4509E-03  2.6604E-02 -1.1910E-02 -5.3947E-03  0.0000E+00 -1.3749E-02 -6.2807E-03  0.0000E+00
  19     0.0000E+00  0.0000E+00  2.1369E-08  1.4620E-04 -2.3312E-07 -1.3235E-23  0.0000E+00 -1.4509E-07  0.0000E+00  0.0000E+00
  20     0.0000E+00  0.0000E+00  2.3498E-07  5.7252E-04 -2.0984E-06 -1.0588E-22  0.0000E+00 -1.4863E-06  0.0000E+00  0.0000E+00
  21     0.0000E+00  3.7403E-08  7.0456E-05  5.4026E-03 -3.1823E-04 -2.7105E-20  0.0000E+00 -3.1795E-04  0.0000E+00  0.0000E+00
  22     5.8699E-05  3.2859E-04  4.3626E-03  2.9867E-02 -9.9472E-03  0.0000E+00  0.0000E+00 -1.1411E-02  0.0000E+00  0.0000E+00
  23     0.0000E+00  0.0000E+00  3.9708E-05  4.2806E-03 -2.0726E-04 -2.7105E-20  0.0000E+00 -1.9624E-04 -1.3553E-20  0.0000E+00
  24     0.0000E+00  0.0000E+00  3.3881E-21  4.3368E-19 -2.7105E-20  1.0154E-05  0.0000E+00 -1.3553E-20  9.2375E-06  0.0000E+00
  25     0.0000E+00  0.0000E+00  0.0000E+00  0.0000E+00  0.0000E+00  0.0000E+00  1.0154E-05  0.0000E+00  0.0000E+00  9.2375E-06
  26     2.1472E-05  1.8781E-04  5.0614E-03  4.0452E-02 -1.3219E-02  8.6736E-19  0.0000E+00 -1.5141E-02 -8.6736E-19  0.0000E+00
  27     0.0000E+00  0.0000E+00  4.3368E-19  0.0000E+00  8.6736E-19  1.0914E-03  0.0000E+00  0.0000E+00  1.2284E-03  0.0000E+00
  28     0.0000E+00  0.0000E+00  0.0000E+00  0.0000E+00  0.0000E+00  0.0000E+00  1.0914E-03  0.0000E+00  0.0000E+00  1.2284E-03
  29     5.1520E-03  1.8427E-02  7.7157E-02  1.8203E-01 -9.8850E-02  3.4694E-18  0.0000E+00 -1.1296E-01  0.0000E+00  0.0000E+00
  30     0.0000E+00  1.7347E-18  0.0000E+00  1.3878E-17  3.4694E-18  1.6596E-02  0.0000E+00  0.0000E+00  1.9012E-02  0.0000E+00
  31     0.0000E+00  0.0000E+00  0.0000E+00  0.0000E+00  0.0000E+00  0.0000E+00  1.6596E-02  0.0000E+00  0.0000E+00  1.9012E-02
  32    -6.0098E-05 -4.1987E-04 -6.7666E-03 -3.0328E-02  1.5571E-02 -1.7347E-18  0.0000E+00  1.8112E-02  0.0000E+00  0.0000E+00
  33     0.0000E+00  0.0000E+00  0.0000E+00  0.0000E+00  0.0000E+00  0.0000E+00  4.9863E-03  0.0000E+00  0.0000E+00  5.7186E-03
  34     0.0000E+00  0.0000E+00  0.0000E+00  0.0000E+00  0.0000E+00  0.0000E+00  0.0000E+00  0.0000E+00  0.0000E+00 -4.3368E-19
  35     1.0409E-04  7.2724E-04  1.1720E-02  5.2529E-02 -2.6970E-02  0.0000E+00  0.0000E+00 -3.1371E-02 -1.7347E-18  0.0000E+00
  36     0.0000E+00  1.6263E-19 -8.6736E-19  3.4694E-18 -5.2042E-18  4.9863E-03  0.0000E+00 -5.2042E-18  5.7186E-03  0.0000E+00

             11          12          13          14          15          16          17          18          19          20

  11    -2.4039E-01
  12    -1.9361E-01 -1.6822E-02
  13     0.0000E+00  0.0000E+00  9.4961E-02
  14     3.7530E-02  2.1668E-02  0.0000E+00  4.1382E-03
  15     0.0000E+00  0.0000E+00  2.4243E-02  0.0000E+00 -2.5248E-03
  16     0.0000E+00  0.0000E+00  1.3997E-02  0.0000E+00 -1.5827E-03 -6.9719E-04
  17    -2.0381E-02 -3.9760E-02  0.0000E+00 -3.3962E-03  0.0000E+00  0.0000E+00  4.1647E-04
  18    -6.3294E-02 -2.0381E-02  0.0000E+00 -5.8825E-03  0.0000E+00  0.0000E+00  6.6771E-03  8.1265E-03
  19    -6.7764E-04 -5.4210E-20  0.0000E+00  0.0000E+00  0.0000E+00  0.0000E+00  0.0000E+00  0.0000E+00  0.0000E+00
  20    -2.5780E-03  0.0000E+00  0.0000E+00  0.0000E+00  0.0000E+00  0.0000E+00  0.0000E+00  0.0000E+00  0.0000E+00  0.0000E+00
  21    -2.0444E-02 -1.7347E-18  0.0000E+00 -6.7766E-05  0.0000E+00  0.0000E+00  1.1737E-04 -1.3553E-20  0.0000E+00  1.4151E-07
  22    -8.1988E-02  6.9389E-18  0.0000E+00 -3.9919E-03  0.0000E+00  0.0000E+00  6.9142E-03  8.6736E-19  2.1293E-04  8.6246E-04
  23    -1.5992E-02  0.0000E+00  0.0000E+00 -3.0943E-05  0.0000E+00  0.0000E+00  5.3596E-05  1.3553E-20  0.0000E+00  0.0000E+00
  24     0.0000E+00  1.6390E-03  0.0000E+00 -3.3881E-21  0.0000E+00  0.0000E+00  0.0000E+00 -4.1994E-06  0.0000E+00  0.0000E+00
  25     0.0000E+00  0.0000E+00  1.6390E-03  0.0000E+00 -4.1994E-06  2.1176E-22  0.0000E+00  0.0000E+00  0.0000E+00  0.0000E+00
  26    -1.1179E-01  0.0000E+00  0.0000E+00 -5.5243E-03  0.0000E+00  0.0000E+00  9.5684E-03  4.3368E-19  1.2139E-04  5.7142E-04
  27     0.0000E+00  1.5786E-02  0.0000E+00  0.0000E+00  0.0000E+00  0.0000E+00  1.3010E-18 -1.4631E-03  7.0082E-05  3.2991E-04
  28     0.0000E+00  0.0000E+00  1.5786E-02  0.0000E+00 -1.4631E-03  0.0000E+00  0.0000E+00  0.0000E+00  0.0000E+00  0.0000E+00
  29    -3.0117E-01 -2.7756E-17  0.0000E+00 -2.8466E-02  0.0000E+00  0.0000E+00  4.9305E-02  1.0408E-17  6.1832E-03  2.1264E-02
  30    -2.7756E-17  7.1912E-02  0.0000E+00  1.7347E-18  0.0000E+00  0.0000E+00  3.4694E-18 -1.8297E-02  3.5698E-03  1.2277E-02
  31     0.0000E+00  0.0000E+00  7.1912E-02  0.0000E+00 -1.8297E-02  1.7347E-18  0.0000E+00  0.0000E+00  0.0000E+00  0.0000E+00
  32     7.1055E-02  3.4694E-18  0.0000E+00  7.3988E-03  0.0000E+00  0.0000E+00 -1.1897E-02 -8.6736E-19 -3.1090E-04 -1.3343E-03
  33     0.0000E+00  0.0000E+00  4.1367E-02  0.0000E+00 -7.2255E-03  0.0000E+00  0.0000E+00  0.0000E+00  0.0000E+00  0.0000E+00
  34     0.0000E+00  0.0000E+00 -3.4694E-18  0.0000E+00  0.0000E+00  5.3022E-04  0.0000E+00  0.0000E+00  0.0000E+00  0.0000E+00
  35    -1.2307E-01 -2.0817E-17  0.0000E+00 -1.1897E-02  0.0000E+00  0.0000E+00  2.1136E-02  2.6021E-18  2.6925E-04  1.1555E-03
  36    -2.0817E-17  4.1367E-02  0.0000E+00 -8.6736E-19  0.0000E+00  0.0000E+00  2.6021E-18 -7.2255E-03  4.6636E-04  2.0014E-03

             21          22          23          24          25          26          27          28          29          30

  21     1.4370E-04
  22     9.0724E-03  4.9169E-02
  23     6.1691E-05  6.5056E-03 -1.7142E-05
  24     3.5617E-05  3.7560E-03 -1.0421E-05 -5.1093E-06
  25     0.0000E+00  0.0000E+00  0.0000E+00  0.0000E+00  9.0721E-07
  26     9.8972E-03  6.0234E-02 -7.2252E-03 -4.6480E-03  0.0000E+00 -7.6532E-02
  27     5.7142E-03  3.4776E-02 -4.6480E-03 -1.8581E-03  0.0000E+00 -5.2400E-02 -1.6025E-02
  28     0.0000E+00  0.0000E+00  0.0000E+00  0.0000E+00  8.2540E-04  0.0000E+00  0.0000E+00  1.4229E-02
  29     1.0133E-01  2.2439E-01 -4.5628E-02 -3.3964E-02  0.0000E+00 -1.8158E-01 -1.4550E-01  0.0000E+00 -2.8330E-01
  30     5.8505E-02  1.2955E-01 -3.3964E-02 -6.4098E-03  0.0000E+00 -1.4550E-01 -1.3576E-02  0.0000E+00 -2.7359E-01  3.2614E-02
  31     0.0000E+00  0.0000E+00  0.0000E+00  0.0000E+00  1.3199E-02  0.0000E+00  0.0000E+00  7.0427E-02  0.0000E+00  0.0000E+00
  32    -1.5043E-02 -5.2575E-02  1.1684E-02  6.7457E-03  0.0000E+00  7.2056E-02  4.1601E-02  0.0000E+00  8.3283E-02  4.8084E-02
  33     0.0000E+00  0.0000E+00  0.0000E+00  0.0000E+00  3.8227E-03  0.0000E+00  0.0000E+00  3.9547E-02  0.0000E+00  0.0000E+00
  34     0.0000E+00  0.0000E+00  0.0000E+00  0.0000E+00  2.2070E-03  0.0000E+00  0.0000E+00  2.2833E-02  0.0000E+00  0.0000E+00
  35     1.3028E-02  4.5531E-02 -8.2073E-03 -9.1526E-03  0.0000E+00 -4.2629E-02 -7.0277E-02  0.0000E+00 -1.8888E-02 -1.3385E-01
  36     2.2565E-02  7.8863E-02 -1.8629E-02 -8.2073E-03  0.0000E+00 -1.1950E-01 -4.2629E-02  0.0000E+00 -1.5566E-01 -1.8888E-02

             31          32          33          34          35          36
  31     1.9057E-01
  32     0.0000E+00  6.5232E-02
  33     1.0647E-01  0.0000E+00 -8.7582E-02
  34     6.1473E-02  0.0000E+00 -6.0490E-02 -1.7735E-02
  35     0.0000E+00 -4.1606E-02  0.0000E+00  0.0000E+00 -5.1550E-02
  36     0.0000E+00 -7.2064E-02  0.0000E+00  0.0000E+00  1.2290E-01  9.0362E-02

 OVERLAP MATRIX - CELL N.   4( -1  0  0)

              1           2           3           4           5           6           7           8           9          10

   1     0.0000E+00
   2     0.0000E+00  0.0000E+00
   3     2.5907E-06  4.1562E-05  2.4841E-03
   4     1.2979E-03  5.1890E-03  2.9821E-02  9.7884E-02
   5    -1.6977E-05 -1.9601E-04 -6.4066E-03 -4.2834E-02 -1.4189E-02
   6     9.8015E-06  1.1317E-04  3.6988E-03  2.4730E-02  9.2517E-03 -3.5065E-03
   7     0.0000E+00  0.0000E+00  0.0000E+00  0.0000E+00  0.0000E+00  0.0000E+00  1.8350E-03
   8    -1.3425E-05 -1.8257E-04 -7.2294E-03 -4.9216E-02 -1.6378E-02  1.0653E-02  0.0000E+00 -1.8909E-02
   9     7.7511E-06  1.0541E-04  4.1739E-03  2.8415E-02  1.0653E-02 -4.0768E-03  0.0000E+00  1.2267E-02 -4.7443E-03
  10     0.0000E+00  0.0000E+00  0.0000E+00  0.0000E+00  0.0000E+00  0.0000E+00  2.0737E-03  0.0000E+00  0.0000E+00  2.3380E-03
  11    -4.5601E-03 -1.7107E-02 -7.8334E-02 -1.8001E-01 -9.1751E-02  6.5896E-02  0.0000E+00 -1.0512E-01  7.5545E-02  0.0000E+00
  12     2.6328E-03  9.8765E-03  4.5226E-02  1.0393E-01  6.5896E-02 -1.5661E-02  0.0000E+00  7.5545E-02 -1.7891E-02  0.0000E+00
  13     0.0000E+00  0.0000E+00  0.0000E+00  0.0000E+00  0.0000E+00  0.0000E+00  2.2384E-02  0.0000E+00  0.0000E+00  2.5725E-02
  14    -7.1435E-07 -3.0535E-05 -2.9673E-03 -1.7736E-02 -7.5122E-03  4.3372E-03  0.0000E+00 -8.6876E-03  5.0158E-03  0.0000E+00
  15     0.0000E+00  0.0000E+00  0.0000E+00  0.0000E+00  0.0000E+00  0.0000E+00 -2.2221E-03  0.0000E+00  0.0000E+00 -2.4860E-03
  16     0.0000E+00  0.0000E+00  0.0000E+00  0.0000E+00  0.0000E+00  0.0000E+00  1.2829E-03  0.0000E+00  0.0000E+00  1.4353E-03
  17     6.1864E-07  2.6444E-05  2.5697E-03  1.5360E-02  5.3947E-03 -5.6805E-03  0.0000E+00  6.2807E-03 -6.4968E-03  0.0000E+00
  18    -1.0715E-06 -4.5803E-05 -4.4509E-03 -2.6604E-02 -1.1910E-02  5.3947E-03  0.0000E+00 -1.3749E-02  6.2807E-03  0.0000E+00
  19     0.0000E+00  9.0742E-07  2.7180E-03  1.4710E-02  8.8625E-03  0.0000E+00  0.0000E+00  1.0370E-02  8.6736E-19  0.0000E+00
  20     0.0000E+00  2.7241E-05  1.0999E-02  4.9732E-02  3.2678E-02  1.7347E-18  0.0000E+00  3.8830E-02  6.9389E-18  0.0000E+00
  21     1.2707E-03  9.0867E-03  8.9703E-02  2.1442E-01  1.8012E-01  1.3878E-17  0.0000E+00  2.1128E-01  1.3878E-17  0.0000E+00
  22     2.1121E-02  7.1591E-02  2.4073E-01  4.1181E-01  2.8220E-01  0.0000E+00  0.0000E+00  3.1910E-01  2.7756E-17  0.0000E+00
  23    -5.3038E-04 -6.9854E-03 -8.3628E-02 -1.1657E-01 -1.6130E-01 -6.9389E-18  0.0000E+00 -1.9287E-01 -6.9389E-18  0.0000E+00
  24    -5.4210E-20  0.0000E+00 -6.9389E-18 -6.9389E-18 -6.9389E-18  3.4563E-02  0.0000E+00 -6.9389E-18  4.1197E-02  0.0000E+00
  25     0.0000E+00  0.0000E+00  0.0000E+00  0.0000E+00  0.0000E+00  0.0000E+00  3.4563E-02  0.0000E+00  0.0000E+00  4.1197E-02
  26    -4.0220E-02 -1.3307E-01 -3.6690E-01 -4.0848E-01 -3.8444E-01 -4.1633E-17  0.0000E+00 -4.2393E-01 -2.7756E-17  0.0000E+00
  27    -3.4694E-18 -6.9389E-18 -2.7756E-17 -2.7756E-17 -4.1633E-17  1.5975E-01  0.0000E+00 -2.7756E-17  1.8182E-01  0.0000E+00
  28     0.0000E+00  0.0000E+00  0.0000E+00  0.0000E+00  0.0000E+00  0.0000E+00  1.5975E-01  0.0000E+00  0.0000E+00  1.8182E-01
  29    -6.7987E-02 -2.0854E-01 -5.1813E-01 -6.3026E-01 -1.7099E-01 -1.3878E-17  0.0000E+00 -1.8885E-01 -6.9389E-18  0.0000E+00
  30    -6.9389E-18  0.0000E+00 -5.5511E-17 -5.5511E-17 -2.0817E-17  2.2742E-01  0.0000E+00 -6.9389E-18  2.5678E-01  0.0000E+00
  31     0.0000E+00  0.0000E+00  0.0000E+00  0.0000E+00  0.0000E+00  0.0000E+00  2.2742E-01  0.0000E+00  0.0000E+00  2.5678E-01
  32    -3.9533E-02 -1.1582E-01 -2.1495E-01 -1.4586E-01 -1.3106E-01  2.7756E-17  0.0000E+00 -1.3295E-01  6.9389E-18  0.0000E+00
  33     0.0000E+00  0.0000E+00  0.0000E+00  0.0000E+00  0.0000E+00  0.0000E+00 -3.3313E-01  0.0000E+00  0.0000E+00 -3.7054E-01
  34     0.0000E+00  0.0000E+00  0.0000E+00  0.0000E+00  0.0000E+00  0.0000E+00  0.0000E+00  0.0000E+00  0.0000E+00  2.7756E-17
  35     6.8473E-02  2.0061E-01  3.7231E-01  2.5264E-01  2.2700E-01  2.7756E-17  0.0000E+00  2.3027E-01 -5.5511E-17  0.0000E+00
  36     1.3878E-17  2.7756E-17 -2.7756E-17  2.7756E-17 -5.5511E-17 -3.3313E-01  0.0000E+00 -5.5511E-17 -3.7054E-01  0.0000E+00

             11          12          13          14          15          16          17          18          19          20

  11    -2.4039E-01
  12     1.9361E-01 -1.6822E-02
  13     0.0000E+00  0.0000E+00  9.4961E-02
  14    -3.7530E-02  2.1668E-02  0.0000E+00  4.1382E-03
  15     0.0000E+00  0.0000E+00 -2.4243E-02  0.0000E+00 -2.5248E-03
  16     0.0000E+00  0.0000E+00  1.3997E-02  0.0000E+00  1.5827E-03 -6.9719E-04
  17     2.0381E-02 -3.9760E-02  0.0000E+00 -3.3962E-03  0.0000E+00  0.0000E+00  4.1647E-04
  18    -6.3294E-02  2.0381E-02  0.0000E+00  5.8825E-03  0.0000E+00  0.0000E+00 -6.6771E-03  8.1265E-03
  19     3.6188E-02  0.0000E+00  0.0000E+00 -4.5206E-03  0.0000E+00  0.0000E+00  7.8300E-03  0.0000E+00  0.0000E+00
  20     1.1854E-01  6.9389E-18  0.0000E+00 -1.8264E-02  0.0000E+00  0.0000E+00  3.1635E-02 -1.7347E-18  0.0000E+00  0.0000E+00
  21     4.2139E-01  2.7756E-17  0.0000E+00 -9.5561E-02  0.0000E+00  0.0000E+00  1.6552E-01  2.7756E-17  0.0000E+00  1.4151E-07
  22     5.7620E-01  2.7756E-17  0.0000E+00 -8.4586E-02  0.0000E+00  0.0000E+00  1.4651E-01  0.0000E+00  2.1293E-04  8.6246E-04
  23    -1.5879E-01 -2.0817E-17  0.0000E+00  1.0219E-01  0.0000E+00  0.0000E+00 -1.7699E-01  0.0000E+00  0.0000E+00  0.0000E+00
  24    -2.0817E-17  9.3345E-02  0.0000E+00  0.0000E+00  0.0000E+00  0.0000E+00  0.0000E+00  6.9432E-02  0.0000E+00  0.0000E+00
  25     0.0000E+00  0.0000E+00  9.3345E-02  0.0000E+00  6.9432E-02  3.4694E-18  0.0000E+00  0.0000E+00  0.0000E+00  0.0000E+00
  26    -3.3365E-01 -1.3878E-17  0.0000E+00  1.0678E-01  0.0000E+00  0.0000E+00 -1.8496E-01 -2.7756E-17 -1.2139E-04 -5.7142E-04
  27     0.0000E+00  3.2696E-01  0.0000E+00  2.0817E-17  0.0000E+00  0.0000E+00 -1.3878E-17  2.0900E-01  7.0082E-05  3.2991E-04
  28     0.0000E+00  0.0000E+00  3.2696E-01  0.0000E+00  2.0900E-01  1.3878E-17  0.0000E+00  0.0000E+00  0.0000E+00  0.0000E+00
  29    -1.4946E-01  2.6021E-17  0.0000E+00 -6.4402E-03  0.0000E+00  0.0000E+00  1.1155E-02  0.0000E+00 -6.1832E-03 -2.1264E-02
  30     1.2143E-17  5.0320E-01  0.0000E+00  2.6021E-18  0.0000E+00  0.0000E+00 -1.0408E-17  1.4615E-01  3.5698E-03  1.2277E-02
  31     0.0000E+00  0.0000E+00  5.0320E-01  0.0000E+00  1.4615E-01  1.3878E-17  0.0000E+00  0.0000E+00  0.0000E+00  0.0000E+00
  32     1.4680E-03 -6.3968E-18  0.0000E+00  1.1447E-01  0.0000E+00  0.0000E+00  2.3156E-02 -8.6736E-18 -3.1090E-04 -1.3343E-03
  33     0.0000E+00  0.0000E+00 -4.0774E-01  0.0000E+00 -3.3966E-01 -4.1633E-17  0.0000E+00  0.0000E+00  0.0000E+00  0.0000E+00
  34     0.0000E+00  0.0000E+00 -2.7756E-17  0.0000E+00 -5.5511E-17  1.2784E-01  0.0000E+00  0.0000E+00  0.0000E+00  0.0000E+00
  35    -2.5427E-03  4.8572E-17  0.0000E+00  2.3156E-02  0.0000E+00  0.0000E+00  8.7736E-02  4.6838E-17  2.6925E-04  1.1555E-03
  36     6.9389E-18 -4.0774E-01  0.0000E+00 -8.6736E-18  0.0000E+00  0.0000E+00  3.9899E-17 -3.3966E-01 -4.6636E-04 -2.0014E-03

             21          22          23          24          25          26          27          28          29          30

  21     1.4370E-04
  22     9.0724E-03  4.9169E-02
  23    -6.1691E-05 -6.5056E-03 -1.7142E-05
  24     3.5617E-05  3.7560E-03  1.0421E-05 -5.1093E-06
  25     0.0000E+00  0.0000E+00  0.0000E+00  0.0000E+00  9.0721E-07
  26    -9.8972E-03 -6.0234E-02 -7.2252E-03  4.6480E-03  0.0000E+00 -7.6532E-02
  27     5.7142E-03  3.4776E-02  4.6480E-03 -1.8581E-03  0.0000E+00  5.2400E-02 -1.6025E-02
  28     0.0000E+00  0.0000E+00  0.0000E+00  0.0000E+00  8.2540E-04  0.0000E+00  0.0000E+00  1.4229E-02
  29    -1.0133E-01 -2.2439E-01 -4.5628E-02  3.3964E-02  0.0000E+00 -1.8158E-01  1.4550E-01  0.0000E+00 -2.8330E-01
  30     5.8505E-02  1.2955E-01  3.3964E-02 -6.4098E-03  0.0000E+00  1.4550E-01 -1.3576E-02  0.0000E+00  2.7359E-01  3.2614E-02
  31     0.0000E+00  0.0000E+00  0.0000E+00  0.0000E+00  1.3199E-02  0.0000E+00  0.0000E+00  7.0427E-02  0.0000E+00  0.0000E+00
  32    -1.5043E-02 -5.2575E-02 -1.1684E-02  6.7457E-03  0.0000E+00 -7.2056E-02  4.1601E-02  0.0000E+00 -8.3283E-02  4.8084E-02
  33     0.0000E+00  0.0000E+00  0.0000E+00  0.0000E+00 -3.8227E-03  0.0000E+00  0.0000E+00 -3.9547E-02  0.0000E+00  0.0000E+00
  34     0.0000E+00  0.0000E+00  0.0000E+00  0.0000E+00  2.2070E-03  0.0000E+00  0.0000E+00  2.2833E-02  0.0000E+00  0.0000E+00
  35     1.3028E-02  4.5531E-02  8.2073E-03 -9.1526E-03  0.0000E+00  4.2629E-02 -7.0277E-02  0.0000E+00  1.8888E-02 -1.3385E-01
  36    -2.2565E-02 -7.8863E-02 -1.8629E-02  8.2073E-03  0.0000E+00 -1.1950E-01  4.2629E-02  0.0000E+00 -1.5566E-01  1.8888E-02

             31          32          33          34          35          36
  31     1.9057E-01
  32     0.0000E+00  6.5232E-02
  33    -1.0647E-01  0.0000E+00 -8.7582E-02
  34     6.1473E-02  0.0000E+00  6.0490E-02 -1.7735E-02
  35     0.0000E+00 -4.1606E-02  0.0000E+00  0.0000E+00 -5.1550E-02
  36     0.0000E+00  7.2064E-02  0.0000E+00  0.0000E+00 -1.2290E-01  9.0362E-02

 OVERLAP MATRIX - CELL N.   5(  1  0  0)

              1           2           3           4           5           6           7           8           9          10

   1     0.0000E+00
   2     0.0000E+00  0.0000E+00
   3     2.5907E-06  4.1562E-05  2.4841E-03
   4     1.2979E-03  5.1890E-03  2.9821E-02  9.7884E-02
   5     1.6977E-05  1.9601E-04  6.4066E-03  4.2834E-02 -1.4189E-02
   6    -9.8015E-06 -1.1317E-04 -3.6988E-03 -2.4730E-02  9.2517E-03 -3.5065E-03
   7     0.0000E+00  0.0000E+00  0.0000E+00  0.0000E+00  0.0000E+00  0.0000E+00  1.8350E-03
   8     1.3425E-05  1.8257E-04  7.2294E-03  4.9216E-02 -1.6378E-02  1.0653E-02  0.0000E+00 -1.8909E-02
   9    -7.7511E-06 -1.0541E-04 -4.1739E-03 -2.8415E-02  1.0653E-02 -4.0768E-03  0.0000E+00  1.2267E-02 -4.7443E-03
  10     0.0000E+00  0.0000E+00  0.0000E+00  0.0000E+00  0.0000E+00  0.0000E+00  2.0737E-03  0.0000E+00  0.0000E+00  2.3380E-03
  11     4.5601E-03  1.7107E-02  7.8334E-02  1.8001E-01 -9.1751E-02  6.5896E-02  0.0000E+00 -1.0512E-01  7.5545E-02  0.0000E+00
  12    -2.6328E-03 -9.8765E-03 -4.5226E-02 -1.0393E-01  6.5896E-02 -1.5661E-02  0.0000E+00  7.5545E-02 -1.7891E-02  0.0000E+00
  13     0.0000E+00  0.0000E+00  0.0000E+00  0.0000E+00  0.0000E+00  0.0000E+00  2.2384E-02  0.0000E+00  0.0000E+00  2.5725E-02
  14    -7.1435E-07 -3.0535E-05 -2.9673E-03 -1.7736E-02  7.5122E-03 -4.3372E-03  0.0000E+00  8.6876E-03 -5.0158E-03  0.0000E+00
  15     0.0000E+00  0.0000E+00  0.0000E+00  0.0000E+00  0.0000E+00  0.0000E+00  2.2221E-03  0.0000E+00  0.0000E+00  2.4860E-03
  16     0.0000E+00  0.0000E+00  0.0000E+00  0.0000E+00  0.0000E+00  0.0000E+00 -1.2829E-03  0.0000E+00  0.0000E+00 -1.4353E-03
  17     6.1864E-07  2.6444E-05  2.5697E-03  1.5360E-02 -5.3947E-03  5.6805E-03  0.0000E+00 -6.2807E-03  6.4968E-03  0.0000E+00
  18    -1.0715E-06 -4.5803E-05 -4.4509E-03 -2.6604E-02  1.1910E-02 -5.3947E-03  0.0000E+00  1.3749E-02 -6.2807E-03  0.0000E+00
  19     0.0000E+00  0.0000E+00  0.0000E+00  1.4532E-06  0.0000E+00  0.0000E+00  0.0000E+00  0.0000E+00  0.0000E+00  0.0000E+00
  20     0.0000E+00  0.0000E+00  0.0000E+00  6.6235E-06  0.0000E+00  0.0000E+00  0.0000E+00  0.0000E+00  0.0000E+00  0.0000E+00
  21     0.0000E+00  0.0000E+00  5.5339E-08  1.3612E-04 -3.0341E-07  2.6276E-07  0.0000E+00 -2.3925E-07  2.0719E-07  0.0000E+00
  22     1.6340E-07  1.5822E-06  7.9062E-05  2.1661E-03 -1.8633E-04  1.6137E-04  0.0000E+00 -2.0403E-04  1.7670E-04  0.0000E+00
  23     0.0000E+00  0.0000E+00  0.0000E+00  7.9722E-05  0.0000E+00  0.0000E+00  0.0000E+00  0.0000E+00  0.0000E+00  0.0000E+00
  24     0.0000E+00  0.0000E+00  0.0000E+00 -6.9042E-05  0.0000E+00  0.0000E+00  0.0000E+00  0.0000E+00  0.0000E+00  0.0000E+00
  25     0.0000E+00  0.0000E+00  0.0000E+00  0.0000E+00  0.0000E+00  0.0000E+00  0.0000E+00  0.0000E+00  0.0000E+00  0.0000E+00
  26     0.0000E+00  1.5295E-07  3.4912E-05  2.0030E-03 -9.8043E-05  9.1965E-05  0.0000E+00 -1.0229E-04  9.5776E-05  0.0000E+00
  27     0.0000E+00 -1.3246E-07 -3.0234E-05 -1.7346E-03  9.1965E-05 -7.1495E-05  0.0000E+00  9.5776E-05 -7.4646E-05  0.0000E+00
  28     0.0000E+00  0.0000E+00  0.0000E+00  0.0000E+00  0.0000E+00  0.0000E+00  8.1490E-06  0.0000E+00  0.0000E+00  8.2989E-06
  29     1.9524E-04  8.1873E-04  5.7449E-03  2.6286E-02 -7.2869E-03  7.3763E-03  0.0000E+00 -8.3637E-03  8.4622E-03  0.0000E+00
  30    -1.6908E-04 -7.0904E-04 -4.9752E-03 -2.2765E-02  7.3763E-03 -5.1575E-03  0.0000E+00  8.4622E-03 -5.9208E-03  0.0000E+00
  31     0.0000E+00  0.0000E+00  0.0000E+00  0.0000E+00  0.0000E+00  0.0000E+00  1.2305E-03  0.0000E+00  0.0000E+00  1.4076E-03
  32     0.0000E+00 -7.5874E-07 -9.3192E-05 -2.7588E-03  2.4476E-04 -2.1197E-04  0.0000E+00  2.6370E-04 -2.2837E-04  0.0000E+00
  33     0.0000E+00  0.0000E+00  0.0000E+00  0.0000E+00  0.0000E+00  0.0000E+00  4.1915E-05  0.0000E+00  0.0000E+00  4.4129E-05
  34     0.0000E+00  0.0000E+00  0.0000E+00  0.0000E+00  0.0000E+00  0.0000E+00 -3.6300E-05  0.0000E+00  0.0000E+00 -3.8216E-05
  35     0.0000E+00  1.8774E-07  2.3059E-05  6.8264E-04 -2.4635E-05  9.3934E-05  0.0000E+00 -2.7424E-05  1.0018E-04  0.0000E+00
  36     0.0000E+00 -1.3007E-06 -1.5976E-04 -4.7295E-03  4.2478E-04 -3.5739E-04  0.0000E+00  4.5751E-04 -3.8519E-04  0.0000E+00

             11          12          13          14          15          16          17          18          19          20

  11    -2.4039E-01
  12     1.9361E-01 -1.6822E-02
  13     0.0000E+00  0.0000E+00  9.4961E-02
  14     3.7530E-02 -2.1668E-02  0.0000E+00  4.1382E-03
  15     0.0000E+00  0.0000E+00  2.4243E-02  0.0000E+00 -2.5248E-03
  16     0.0000E+00  0.0000E+00 -1.3997E-02  0.0000E+00  1.5827E-03 -6.9719E-04
  17    -2.0381E-02  3.9760E-02  0.0000E+00 -3.3962E-03  0.0000E+00  0.0000E+00  4.1647E-04
  18     6.3294E-02 -2.0381E-02  0.0000E+00  5.8825E-03  0.0000E+00  0.0000E+00 -6.6771E-03  8.1265E-03
  19    -6.3455E-06  5.4953E-06  0.0000E+00  0.0000E+00  0.0000E+00  0.0000E+00  0.0000E+00  0.0000E+00  0.0000E+00
  20    -2.8181E-05  2.4405E-05  0.0000E+00  0.0000E+00  0.0000E+00  0.0000E+00  0.0000E+00  0.0000E+00  0.0000E+00  0.0000E+00
  21    -4.9594E-04  4.2950E-04  0.0000E+00  0.0000E+00  0.0000E+00  0.0000E+00  0.0000E+00  0.0000E+00  0.0000E+00  1.4151E-07
  22    -5.8330E-03  5.0516E-03  0.0000E+00 -8.2421E-05  0.0000E+00  0.0000E+00  2.0394E-05 -1.4129E-04  2.1293E-04  8.6246E-04
  23    -2.8405E-04  2.7129E-04  0.0000E+00  0.0000E+00  0.0000E+00  0.0000E+00  0.0000E+00  0.0000E+00  0.0000E+00  0.0000E+00
  24     2.7129E-04 -2.0574E-04  0.0000E+00  0.0000E+00  0.0000E+00  0.0000E+00  0.0000E+00  0.0000E+00  0.0000E+00  0.0000E+00
  25     0.0000E+00  0.0000E+00  2.9210E-05  0.0000E+00  0.0000E+00  0.0000E+00  0.0000E+00  0.0000E+00  0.0000E+00  0.0000E+00
  26    -5.3975E-03  5.3345E-03  0.0000E+00 -3.6057E-05  0.0000E+00  0.0000E+00  4.5321E-06 -6.2445E-05  1.2139E-04  5.7142E-04
  27     5.3345E-03 -3.8576E-03  0.0000E+00  3.1226E-05  0.0000E+00  0.0000E+00 -1.2795E-05  5.2799E-05 -7.0082E-05 -3.2991E-04
  28     0.0000E+00  0.0000E+00  7.6216E-04  0.0000E+00 -5.1212E-06  4.4351E-06  0.0000E+00  0.0000E+00  0.0000E+00  0.0000E+00
  29    -4.3041E-02  4.6175E-02  0.0000E+00 -3.6143E-03  0.0000E+00  0.0000E+00 -8.7420E-05 -6.3377E-03  6.1832E-03  2.1264E-02
  30     4.6175E-02 -2.9711E-02  0.0000E+00  3.1301E-03  0.0000E+00  0.0000E+00 -1.9081E-03  5.2022E-03 -3.5698E-03 -1.2277E-02
  31     0.0000E+00  0.0000E+00  1.0277E-02  0.0000E+00 -1.1453E-03  9.9190E-04  0.0000E+00  0.0000E+00  0.0000E+00  0.0000E+00
  32     7.2164E-03 -6.2495E-03  0.0000E+00  1.0351E-04  0.0000E+00  0.0000E+00 -2.5069E-05  1.7368E-04 -3.1090E-04 -1.3343E-03
  33     0.0000E+00  0.0000E+00  2.0984E-03  0.0000E+00 -2.9968E-05  2.7857E-05  0.0000E+00  0.0000E+00  0.0000E+00  0.0000E+00
  34     0.0000E+00  0.0000E+00 -1.8173E-03  0.0000E+00  2.7857E-05 -2.1926E-05  0.0000E+00  0.0000E+00  0.0000E+00  0.0000E+00
  35     1.3086E-05  3.6233E-03  0.0000E+00 -2.5069E-05  0.0000E+00  0.0000E+00 -4.6741E-05 -5.0935E-05  2.6925E-04  1.1555E-03
  36     1.2631E-02 -1.0414E-02  0.0000E+00  1.7368E-04  0.0000E+00  0.0000E+00 -5.0935E-05  2.9879E-04 -4.6636E-04 -2.0014E-03

             21          22          23          24          25          26          27          28          29          30

  21     1.4370E-04
  22     9.0724E-03  4.9169E-02
  23     6.1691E-05  6.5056E-03 -1.7142E-05
  24    -3.5617E-05 -3.7560E-03  1.0421E-05 -5.1093E-06
  25     0.0000E+00  0.0000E+00  0.0000E+00  0.0000E+00  9.0721E-07
  26     9.8972E-03  6.0234E-02 -7.2252E-03  4.6480E-03  0.0000E+00 -7.6532E-02
  27    -5.7142E-03 -3.4776E-02  4.6480E-03 -1.8581E-03  0.0000E+00  5.2400E-02 -1.6025E-02
  28     0.0000E+00  0.0000E+00  0.0000E+00  0.0000E+00  8.2540E-04  0.0000E+00  0.0000E+00  1.4229E-02
  29     1.0133E-01  2.2439E-01 -4.5628E-02  3.3964E-02  0.0000E+00 -1.8158E-01  1.4550E-01  0.0000E+00 -2.8330E-01
  30    -5.8505E-02 -1.2955E-01  3.3964E-02 -6.4098E-03  0.0000E+00  1.4550E-01 -1.3576E-02  0.0000E+00  2.7359E-01  3.2614E-02
  31     0.0000E+00  0.0000E+00  0.0000E+00  0.0000E+00  1.3199E-02  0.0000E+00  0.0000E+00  7.0427E-02  0.0000E+00  0.0000E+00
  32    -1.5043E-02 -5.2575E-02  1.1684E-02 -6.7457E-03  0.0000E+00  7.2056E-02 -4.1601E-02  0.0000E+00  8.3283E-02 -4.8084E-02
  33     0.0000E+00  0.0000E+00  0.0000E+00  0.0000E+00  3.8227E-03  0.0000E+00  0.0000E+00  3.9547E-02  0.0000E+00  0.0000E+00
  34     0.0000E+00  0.0000E+00  0.0000E+00  0.0000E+00 -2.2070E-03  0.0000E+00  0.0000E+00 -2.2833E-02  0.0000E+00  0.0000E+00
  35     1.3028E-02  4.5531E-02 -8.2073E-03  9.1526E-03  0.0000E+00 -4.2629E-02  7.0277E-02  0.0000E+00 -1.8888E-02  1.3385E-01
  36    -2.2565E-02 -7.8863E-02  1.8629E-02 -8.2073E-03  0.0000E+00  1.1950E-01 -4.2629E-02  0.0000E+00  1.5566E-01 -1.8888E-02

             31          32          33          34          35          36
  31     1.9057E-01
  32     0.0000E+00  6.5232E-02
  33     1.0647E-01  0.0000E+00 -8.7582E-02
  34    -6.1473E-02  0.0000E+00  6.0490E-02 -1.7735E-02
  35     0.0000E+00 -4.1606E-02  0.0000E+00  0.0000E+00 -5.1550E-02
  36     0.0000E+00  7.2064E-02  0.0000E+00  0.0000E+00 -1.2290E-01  9.0362E-02

 OVERLAP MATRIX - CELL N.   6(  0 -1  0)

              1           2           3           4           5           6           7           8           9          10

   1     0.0000E+00
   2     0.0000E+00  0.0000E+00
   3     2.5907E-06  4.1562E-05  2.4841E-03
   4     1.2979E-03  5.1890E-03  2.9821E-02  9.7884E-02
   5     1.6941E-21  1.3553E-20  4.3368E-19  0.0000E+00  1.8350E-03
   6    -1.9603E-05 -2.2633E-04 -7.3977E-03 -4.9460E-02  1.0842E-18 -1.9531E-02
   7     0.0000E+00  0.0000E+00  0.0000E+00  0.0000E+00  0.0000E+00  0.0000E+00  1.8350E-03
   8    -8.4703E-22  0.0000E+00  0.0000E+00  3.4694E-18  2.0737E-03 -2.1684E-19  0.0000E+00  2.3380E-03
   9    -1.5502E-05 -2.1081E-04 -8.3478E-03 -5.6830E-02 -6.5052E-19 -2.2528E-02  0.0000E+00  4.3368E-19 -2.5991E-02
  10     0.0000E+00  0.0000E+00  0.0000E+00  0.0000E+00  0.0000E+00  0.0000E+00  2.0737E-03  0.0000E+00  0.0000E+00  2.3380E-03
  11     4.3368E-19  1.7347E-18  0.0000E+00  0.0000E+00  2.2384E-02 -6.0715E-18  0.0000E+00  2.5725E-02  1.3878E-17  0.0000E+00
  12    -5.2655E-03 -1.9753E-02 -9.0452E-02 -2.0786E-01 -6.0715E-18 -1.2980E-01  0.0000E+00  1.3878E-17 -1.4874E-01  0.0000E+00
  13     0.0000E+00  0.0000E+00  0.0000E+00  0.0000E+00  0.0000E+00  0.0000E+00  2.2384E-02  0.0000E+00  0.0000E+00  2.5725E-02
  14    -7.1435E-07 -3.0535E-05 -2.9673E-03 -1.7736E-02 -4.3368E-19 -8.6744E-03  0.0000E+00  1.7347E-18 -1.0032E-02  0.0000E+00
  15     0.0000E+00  0.0000E+00  0.0000E+00  0.0000E+00  0.0000E+00  0.0000E+00  2.1684E-19  0.0000E+00  0.0000E+00  2.1684E-19
  16     0.0000E+00  0.0000E+00  0.0000E+00  0.0000E+00  0.0000E+00  0.0000E+00 -2.5658E-03  0.0000E+00  0.0000E+00 -2.8706E-03
  17    -1.2373E-06 -5.2888E-05 -5.1395E-03 -3.0719E-02  1.7347E-18 -1.5024E-02  0.0000E+00  1.7347E-18 -1.7375E-02  0.0000E+00
  18    -2.1176E-22  0.0000E+00 -1.3010E-18 -3.4694E-18 -2.5658E-03 -2.6021E-18  0.0000E+00 -2.8706E-03 -4.3368E-18  0.0000E+00
  19     0.0000E+00  0.0000E+00  0.0000E+00  1.4532E-06  0.0000E+00  0.0000E+00  0.0000E+00  0.0000E+00  0.0000E+00  0.0000E+00
  20     0.0000E+00  0.0000E+00  0.0000E+00  6.6235E-06  0.0000E+00  0.0000E+00  0.0000E+00  0.0000E+00  0.0000E+00  0.0000E+00
  21     0.0000E+00  0.0000E+00  5.5339E-08  1.3612E-04 -7.5854E-08  3.9415E-07  0.0000E+00 -5.9812E-08  3.1079E-07  0.0000E+00
  22     1.6340E-07  1.5822E-06  7.9062E-05  2.1661E-03 -4.6583E-05  2.4205E-04  0.0000E+00 -5.1008E-05  2.6504E-04  0.0000E+00
  23     0.0000E+00  0.0000E+00  0.0000E+00  1.9931E-05  0.0000E+00  0.0000E+00  0.0000E+00  0.0000E+00  0.0000E+00  0.0000E+00
  24     0.0000E+00  0.0000E+00  0.0000E+00 -1.0356E-04  0.0000E+00  0.0000E+00  0.0000E+00  0.0000E+00  0.0000E+00  0.0000E+00
  25     0.0000E+00  0.0000E+00  0.0000E+00  0.0000E+00  0.0000E+00  0.0000E+00  0.0000E+00  0.0000E+00  0.0000E+00  0.0000E+00
  26     0.0000E+00  3.8238E-08  8.7279E-06  5.0075E-04  1.5120E-06  3.4487E-05  0.0000E+00  1.3868E-06  3.5916E-05  0.0000E+00
  27     0.0000E+00 -1.9869E-07 -4.5352E-05 -2.6020E-03  3.4487E-05 -1.7105E-04  0.0000E+00  3.5916E-05 -1.7833E-04  0.0000E+00
  28     0.0000E+00  0.0000E+00  0.0000E+00  0.0000E+00  0.0000E+00  0.0000E+00  8.1490E-06  0.0000E+00  0.0000E+00  8.2989E-06
  29     4.8811E-05  2.0468E-04  1.4362E-03  6.5716E-03  6.9821E-04  2.7661E-03  0.0000E+00  7.9690E-04  3.1733E-03  0.0000E+00
  30    -2.5363E-04 -1.0636E-03 -7.4628E-03 -3.4147E-02  2.7661E-03 -1.3143E-02  0.0000E+00  3.1733E-03 -1.5081E-02  0.0000E+00
  31     0.0000E+00  0.0000E+00  0.0000E+00  0.0000E+00  0.0000E+00  0.0000E+00  1.2305E-03  0.0000E+00  0.0000E+00  1.4076E-03
  32     0.0000E+00 -7.5874E-07 -9.3192E-05 -2.7588E-03  6.1190E-05 -3.1795E-04  0.0000E+00  6.5925E-05 -3.4255E-04  0.0000E+00
  33     0.0000E+00  0.0000E+00  0.0000E+00  0.0000E+00  0.0000E+00  0.0000E+00  1.0479E-05  0.0000E+00  0.0000E+00  1.1032E-05
  34     0.0000E+00  0.0000E+00  0.0000E+00  0.0000E+00  0.0000E+00  0.0000E+00 -5.4449E-05  0.0000E+00  0.0000E+00 -5.7325E-05
  35     0.0000E+00 -1.2203E-06 -1.4988E-04 -4.4371E-03  1.1862E-04 -5.0749E-04  0.0000E+00  1.2731E-04 -5.4685E-04  0.0000E+00
  36     0.0000E+00 -4.8776E-07 -5.9909E-05 -1.7735E-03 -1.1224E-05 -2.1413E-04  0.0000E+00 -1.0850E-05 -2.3046E-04  0.0000E+00

             11          12          13          14          15          16          17          18          19          20

  11     9.4961E-02
  12    -1.6480E-17 -3.5217E-01
  13     0.0000E+00  0.0000E+00  9.4961E-02
  14     3.4694E-18 -4.3336E-02  0.0000E+00  4.1382E-03
  15     0.0000E+00  0.0000E+00  3.4694E-18  0.0000E+00  2.1660E-04
  16     0.0000E+00  0.0000E+00 -2.7993E-02  0.0000E+00  1.6263E-19 -3.4386E-03
  17    -6.9389E-18 -7.5061E-02  0.0000E+00  6.7925E-03  0.0000E+00  0.0000E+00  1.1982E-02
  18    -2.7993E-02 -1.6480E-17  0.0000E+00  4.3368E-19  0.0000E+00  0.0000E+00  1.7347E-18 -3.4386E-03
  19    -1.5864E-06  8.2430E-06  0.0000E+00  0.0000E+00  0.0000E+00  0.0000E+00  0.0000E+00  0.0000E+00  0.0000E+00
  20    -7.0452E-06  3.6608E-05  0.0000E+00  0.0000E+00  0.0000E+00  0.0000E+00  0.0000E+00  0.0000E+00  0.0000E+00  0.0000E+00
  21    -1.2399E-04  6.4425E-04  0.0000E+00  0.0000E+00  0.0000E+00  0.0000E+00  0.0000E+00  0.0000E+00  0.0000E+00  1.4151E-07
  22    -1.4583E-03  7.5773E-03  0.0000E+00 -8.2421E-05  0.0000E+00  0.0000E+00 -1.3256E-04 -5.2985E-05  2.1293E-04  8.6246E-04
  23     9.6312E-06  1.0174E-04  0.0000E+00  0.0000E+00  0.0000E+00  0.0000E+00  0.0000E+00  0.0000E+00  0.0000E+00  0.0000E+00
  24     1.0174E-04 -4.9942E-04  0.0000E+00  0.0000E+00  0.0000E+00  0.0000E+00  0.0000E+00  0.0000E+00  0.0000E+00  0.0000E+00
  25     0.0000E+00  0.0000E+00  2.9210E-05  0.0000E+00  0.0000E+00  0.0000E+00  0.0000E+00  0.0000E+00  0.0000E+00  0.0000E+00
  26     3.7718E-04  2.0004E-03  0.0000E+00 -9.0142E-06  0.0000E+00  0.0000E+00 -1.6967E-05  3.8262E-07  6.7763E-21  5.4210E-20
  27     2.0004E-03 -9.6323E-03  0.0000E+00  4.6839E-05  0.0000E+00  0.0000E+00  7.4857E-05  3.1300E-05 -1.4016E-04 -6.5982E-04
  28     0.0000E+00  0.0000E+00  7.6216E-04  0.0000E+00 -1.2803E-06  6.6526E-06  0.0000E+00  0.0000E+00  0.0000E+00  0.0000E+00
  29     6.9445E-03  1.7315E-02  0.0000E+00 -9.0358E-04  0.0000E+00  0.0000E+00 -2.0055E-03  8.0071E-04  0.0000E+00  0.0000E+00
  30     1.7315E-02 -7.9697E-02  0.0000E+00  4.6951E-03  0.0000E+00  0.0000E+00  7.4450E-03  3.2842E-03 -7.1397E-03 -2.4553E-02
  31     0.0000E+00  0.0000E+00  1.0277E-02  0.0000E+00 -2.8634E-04  1.4879E-03  0.0000E+00  0.0000E+00  0.0000E+00  0.0000E+00
  32     1.8041E-03 -9.3743E-03  0.0000E+00  1.0351E-04  0.0000E+00  0.0000E+00  1.6295E-04  6.5131E-05 -3.1090E-04 -1.3343E-03
  33     0.0000E+00  0.0000E+00  5.2461E-04  0.0000E+00  1.8866E-07  1.0446E-05  0.0000E+00  0.0000E+00  0.0000E+00  0.0000E+00
  34     0.0000E+00  0.0000E+00 -2.7260E-03  0.0000E+00  1.0446E-05 -5.2082E-05  0.0000E+00  0.0000E+00  0.0000E+00  0.0000E+00
  35     3.9133E-03 -1.4882E-02  0.0000E+00  1.6295E-04  0.0000E+00  0.0000E+00  2.5652E-04  1.2415E-04 -5.3850E-04 -2.3110E-03
  36    -1.3715E-03 -6.5135E-03  0.0000E+00  6.5131E-05  0.0000E+00  0.0000E+00  1.2415E-04 -4.4682E-06 -8.1315E-20 -2.1684E-19

             21          22          23          24          25          26          27          28          29          30

  21     1.4370E-04
  22     9.0724E-03  4.9169E-02
  23    -6.7763E-21 -4.3368E-19  9.0721E-07
  24    -7.1235E-05 -7.5121E-03  4.2352E-22 -2.3159E-05
  25     0.0000E+00  0.0000E+00  0.0000E+00  0.0000E+00  9.0721E-07
  26     8.6736E-19  0.0000E+00  8.2540E-04  9.7578E-19  0.0000E+00  1.4229E-02
  27    -1.1428E-02 -6.9553E-02  5.4210E-19 -9.9087E-03  0.0000E+00  8.6736E-18 -1.0679E-01
  28     0.0000E+00  0.0000E+00  0.0000E+00  0.0000E+00  8.2540E-04  0.0000E+00  0.0000E+00  1.4229E-02
  29     6.9389E-18  1.3878E-17  1.3199E-02  4.7705E-18  0.0000E+00  7.0427E-02  1.3878E-17  0.0000E+00  1.9057E-01
  30    -1.1701E-01 -2.5910E-01  4.7705E-18 -6.5237E-02  0.0000E+00  1.3878E-17 -2.6558E-01  0.0000E+00  3.1225E-17 -4.4126E-01
  31     0.0000E+00  0.0000E+00  0.0000E+00  0.0000E+00  1.3199E-02  0.0000E+00  0.0000E+00  7.0427E-02  0.0000E+00  0.0000E+00
  32    -1.5043E-02 -5.2575E-02 -8.6736E-19 -1.3491E-02  0.0000E+00  0.0000E+00 -8.3203E-02  0.0000E+00  6.9389E-18 -9.6167E-02
  33     0.0000E+00  0.0000E+00  0.0000E+00  0.0000E+00 -2.1684E-19  0.0000E+00  0.0000E+00 -3.4694E-18  0.0000E+00  0.0000E+00
  34     0.0000E+00  0.0000E+00  0.0000E+00  0.0000E+00 -4.4141E-03  0.0000E+00  0.0000E+00 -4.5665E-02  0.0000E+00  0.0000E+00
  35    -2.6056E-02 -9.1063E-02  8.6736E-19 -2.3368E-02  0.0000E+00  1.3878E-17 -1.4411E-01  0.0000E+00 -1.2143E-17 -1.6657E-01
  36    -3.4694E-18 -1.3878E-17 -4.4141E-03 -1.7347E-18  0.0000E+00 -4.5665E-02 -1.7347E-17  0.0000E+00 -1.2295E-01 -1.0408E-17

             31          32          33          34          35          36
  31     1.9057E-01
  32     0.0000E+00  6.5232E-02
  33     0.0000E+00  0.0000E+00  1.7189E-02
  34    -1.2295E-01  0.0000E+00  3.4694E-18 -1.2251E-01
  35     0.0000E+00  8.3213E-02  0.0000E+00  0.0000E+00  1.6132E-01
  36     0.0000E+00  6.9389E-18  0.0000E+00  0.0000E+00  6.2450E-17 -1.2251E-01

 OVERLAP MATRIX - CELL N.   7(  0  1  0)

              1           2           3           4           5           6           7           8           9          10

   1     0.0000E+00
   2     0.0000E+00  0.0000E+00
   3     2.5907E-06  4.1562E-05  2.4841E-03
   4     1.2979E-03  5.1890E-03  2.9821E-02  9.7884E-02
   5     1.6941E-21  1.3553E-20  4.3368E-19  0.0000E+00  1.8350E-03
   6     1.9603E-05  2.2633E-04  7.3977E-03  4.9460E-02 -1.0842E-18 -1.9531E-02
   7     0.0000E+00  0.0000E+00  0.0000E+00  0.0000E+00  0.0000E+00  0.0000E+00  1.8350E-03
   8    -8.4703E-22  0.0000E+00  0.0000E+00  3.4694E-18  2.0737E-03  2.1684E-19  0.0000E+00  2.3380E-03
   9     1.5502E-05  2.1081E-04  8.3478E-03  5.6830E-02  6.5052E-19 -2.2528E-02  0.0000E+00 -4.3368E-19 -2.5991E-02
  10     0.0000E+00  0.0000E+00  0.0000E+00  0.0000E+00  0.0000E+00  0.0000E+00  2.0737E-03  0.0000E+00  0.0000E+00  2.3380E-03
  11     4.3368E-19  1.7347E-18  0.0000E+00  0.0000E+00  2.2384E-02  6.0715E-18  0.0000E+00  2.5725E-02 -1.3878E-17  0.0000E+00
  12     5.2655E-03  1.9753E-02  9.0452E-02  2.0786E-01  6.0715E-18 -1.2980E-01  0.0000E+00 -1.3878E-17 -1.4874E-01  0.0000E+00
  13     0.0000E+00  0.0000E+00  0.0000E+00  0.0000E+00  0.0000E+00  0.0000E+00  2.2384E-02  0.0000E+00  0.0000E+00  2.5725E-02
  14    -7.1435E-07 -3.0535E-05 -2.9673E-03 -1.7736E-02 -4.3368E-19  8.6744E-03  0.0000E+00  1.7347E-18  1.0032E-02  0.0000E+00
  15     0.0000E+00  0.0000E+00  0.0000E+00  0.0000E+00  0.0000E+00  0.0000E+00  2.1684E-19  0.0000E+00  0.0000E+00  2.1684E-19
  16     0.0000E+00  0.0000E+00  0.0000E+00  0.0000E+00  0.0000E+00  0.0000E+00  2.5658E-03  0.0000E+00  0.0000E+00  2.8706E-03
  17    -1.2373E-06 -5.2888E-05 -5.1395E-03 -3.0719E-02  1.7347E-18  1.5024E-02  0.0000E+00  1.7347E-18  1.7375E-02  0.0000E+00
  18     2.1176E-22  0.0000E+00  1.3010E-18  3.4694E-18  2.5658E-03 -2.6021E-18  0.0000E+00  2.8706E-03 -4.3368E-18  0.0000E+00
  19     0.0000E+00  9.0742E-07  2.7180E-03  1.4710E-02 -4.4313E-03 -7.6752E-03  0.0000E+00 -5.1850E-03 -8.9807E-03  0.0000E+00
  20     0.0000E+00  2.7241E-05  1.0999E-02  4.9732E-02 -1.6339E-02 -2.8300E-02  0.0000E+00 -1.9415E-02 -3.3628E-02  0.0000E+00
  21     1.2707E-03  9.0867E-03  8.9703E-02  2.1442E-01 -9.0062E-02 -1.5599E-01  0.0000E+00 -1.0564E-01 -1.8297E-01  0.0000E+00
  22     2.1121E-02  7.1591E-02  2.4073E-01  4.1181E-01 -1.4110E-01 -2.4439E-01  0.0000E+00 -1.5955E-01 -2.7635E-01  0.0000E+00
  23     2.6519E-04  3.4927E-03  4.1814E-02  5.8286E-02 -1.4402E-02 -8.4811E-02  0.0000E+00 -1.7319E-02 -1.0135E-01  0.0000E+00
  24     4.5933E-04  6.0495E-03  7.2424E-02  1.0095E-01 -8.4811E-02 -1.1233E-01  0.0000E+00 -1.0135E-01 -1.3435E-01  0.0000E+00
  25     0.0000E+00  0.0000E+00  0.0000E+00  0.0000E+00  0.0000E+00  0.0000E+00  3.4563E-02  0.0000E+00  0.0000E+00  4.1197E-02
  26     2.0110E-02  6.6536E-02  1.8345E-01  2.0424E-01  2.3701E-02 -2.3564E-01  0.0000E+00  3.0385E-02 -2.6230E-01  0.0000E+00
  27     3.4832E-02  1.1524E-01  3.1774E-01  3.5375E-01 -2.3564E-01 -2.4839E-01  0.0000E+00 -2.6230E-01 -2.7249E-01  0.0000E+00
  28     0.0000E+00  0.0000E+00  0.0000E+00  0.0000E+00  0.0000E+00  0.0000E+00  1.5975E-01  0.0000E+00  0.0000E+00  1.8182E-01
  29     3.3994E-02  1.0427E-01  2.5906E-01  3.1513E-01  1.2781E-01 -1.7252E-01  0.0000E+00  1.4537E-01 -1.9296E-01  0.0000E+00
  30     5.8878E-02  1.8060E-01  4.4871E-01  5.4582E-01 -1.7252E-01 -7.1391E-02  0.0000E+00 -1.9296E-01 -7.7442E-02  0.0000E+00
  31     0.0000E+00  0.0000E+00  0.0000E+00  0.0000E+00  0.0000E+00  0.0000E+00  2.2742E-01  0.0000E+00  0.0000E+00  2.5678E-01
  32    -3.9533E-02 -1.1582E-01 -2.1495E-01 -1.4586E-01  6.5530E-02  1.1350E-01  0.0000E+00  6.6474E-02  1.1514E-01  0.0000E+00
  33     0.0000E+00  0.0000E+00  0.0000E+00  0.0000E+00  0.0000E+00  0.0000E+00  1.6656E-01  0.0000E+00  0.0000E+00  1.8527E-01
  34     0.0000E+00  0.0000E+00  0.0000E+00  0.0000E+00  0.0000E+00  0.0000E+00  2.8850E-01  0.0000E+00  0.0000E+00  3.2090E-01
  35    -3.4237E-02 -1.0030E-01 -1.8616E-01 -1.2632E-01  3.0659E-01 -4.5954E-02  0.0000E+00  3.3547E-01 -6.0736E-02  0.0000E+00
  36     5.9300E-02  1.7373E-01  3.2243E-01  2.1879E-01  4.5954E-02 -2.5353E-01  0.0000E+00  6.0736E-02 -2.6534E-01  0.0000E+00

             11          12          13          14          15          16          17          18          19          20

  11     9.4961E-02
  12     1.6480E-17 -3.5217E-01
  13     0.0000E+00  0.0000E+00  9.4961E-02
  14     3.4694E-18  4.3336E-02  0.0000E+00  4.1382E-03
  15     0.0000E+00  0.0000E+00  3.4694E-18  0.0000E+00  2.1660E-04
  16     0.0000E+00  0.0000E+00  2.7993E-02  0.0000E+00 -1.6263E-19 -3.4386E-03
  17    -6.9389E-18  7.5061E-02  0.0000E+00  6.7925E-03  0.0000E+00  0.0000E+00  1.1982E-02
  18     2.7993E-02 -1.6480E-17  0.0000E+00 -4.3368E-19  0.0000E+00  0.0000E+00 -1.7347E-18 -3.4386E-03
  19    -1.8094E-02 -3.1340E-02  0.0000E+00 -4.5206E-03  0.0000E+00  0.0000E+00 -3.9150E-03  6.7810E-03  0.0000E+00
  20    -5.9269E-02 -1.0266E-01  0.0000E+00 -1.8264E-02  0.0000E+00  0.0000E+00 -1.5817E-02  2.7397E-02  0.0000E+00  0.0000E+00
  21    -2.1070E-01 -3.6494E-01  0.0000E+00 -9.5561E-02  0.0000E+00  0.0000E+00 -8.2759E-02  1.4334E-01  0.0000E+00  1.4151E-07
  22    -2.8810E-01 -4.9900E-01  0.0000E+00 -8.4586E-02  0.0000E+00  0.0000E+00 -7.3254E-02  1.2688E-01  2.1293E-04  8.6246E-04
  23     3.0311E-02 -1.0918E-01  0.0000E+00 -5.1094E-02  0.0000E+00  0.0000E+00 -9.6323E-02  4.6576E-02  0.0000E+00  0.0000E+00
  24    -1.0918E-01 -9.5756E-02  0.0000E+00 -8.8497E-02  0.0000E+00  0.0000E+00 -4.6576E-02  1.5010E-01  0.0000E+00  0.0000E+00
  25     0.0000E+00  0.0000E+00  9.3345E-02  0.0000E+00 -3.4716E-02 -6.0130E-02  0.0000E+00  0.0000E+00  0.0000E+00  0.0000E+00
  26     1.6180E-01 -2.8605E-01  0.0000E+00 -5.3392E-02  0.0000E+00  0.0000E+00 -2.0299E-01 -1.0410E-02  6.7763E-21  5.4210E-20
  27    -2.8605E-01 -1.6850E-01  0.0000E+00 -9.2478E-02  0.0000E+00  0.0000E+00  1.0410E-02  1.9097E-01  1.4016E-04  6.5982E-04
  28     0.0000E+00  0.0000E+00  3.2696E-01  0.0000E+00 -1.0450E-01 -1.8100E-01  0.0000E+00  0.0000E+00  0.0000E+00  0.0000E+00
  29     3.4003E-01 -2.8261E-01  0.0000E+00  3.2201E-03  0.0000E+00  0.0000E+00 -1.0682E-01 -6.8113E-02  0.0000E+00  0.0000E+00
  30    -2.8261E-01  1.3702E-02  0.0000E+00  5.5774E-03  0.0000E+00  0.0000E+00  6.8113E-02  2.8171E-02  7.1397E-03  2.4553E-02
  31     0.0000E+00  0.0000E+00  5.0320E-01  0.0000E+00 -7.3073E-02 -1.2657E-01  0.0000E+00  0.0000E+00  0.0000E+00  0.0000E+00
  32    -7.3401E-04 -1.2713E-03  0.0000E+00  1.1447E-01  0.0000E+00  0.0000E+00 -1.1578E-02  2.0054E-02 -3.1090E-04 -1.3343E-03
  33     0.0000E+00  0.0000E+00  2.0387E-01  0.0000E+00  1.0968E-02 -2.0243E-01  0.0000E+00  0.0000E+00  0.0000E+00  0.0000E+00
  34     0.0000E+00  0.0000E+00  3.5312E-01  0.0000E+00 -2.0243E-01 -2.2278E-01  0.0000E+00  0.0000E+00  0.0000E+00  0.0000E+00
  35     3.0517E-01 -1.7766E-01  0.0000E+00 -1.1578E-02  0.0000E+00  0.0000E+00 -2.3281E-01 -1.8507E-01 -5.3850E-04 -2.3110E-03
  36     1.7766E-01 -1.0003E-01  0.0000E+00  2.0054E-02  0.0000E+00  0.0000E+00 -1.8507E-01 -1.9113E-02  8.1315E-20  2.1684E-19

             21          22          23          24          25          26          27          28          29          30

  21     1.4370E-04
  22     9.0724E-03  4.9169E-02
  23    -6.7763E-21 -4.3368E-19  9.0721E-07
  24     7.1235E-05  7.5121E-03 -4.2352E-22 -2.3159E-05
  25     0.0000E+00  0.0000E+00  0.0000E+00  0.0000E+00  9.0721E-07
  26     8.6736E-19  0.0000E+00  8.2540E-04 -9.7578E-19  0.0000E+00  1.4229E-02
  27     1.1428E-02  6.9553E-02 -5.4210E-19 -9.9087E-03  0.0000E+00 -8.6736E-18 -1.0679E-01
  28     0.0000E+00  0.0000E+00  0.0000E+00  0.0000E+00  8.2540E-04  0.0000E+00  0.0000E+00  1.4229E-02
  29     6.9389E-18  1.3878E-17  1.3199E-02 -4.7705E-18  0.0000E+00  7.0427E-02 -1.3878E-17  0.0000E+00  1.9057E-01
  30     1.1701E-01  2.5910E-01 -4.7705E-18 -6.5237E-02  0.0000E+00 -1.3878E-17 -2.6558E-01  0.0000E+00 -3.1225E-17 -4.4126E-01
  31     0.0000E+00  0.0000E+00  0.0000E+00  0.0000E+00  1.3199E-02  0.0000E+00  0.0000E+00  7.0427E-02  0.0000E+00  0.0000E+00
  32    -1.5043E-02 -5.2575E-02 -8.6736E-19  1.3491E-02  0.0000E+00  0.0000E+00  8.3203E-02  0.0000E+00  6.9389E-18  9.6167E-02
  33     0.0000E+00  0.0000E+00  0.0000E+00  0.0000E+00 -2.1684E-19  0.0000E+00  0.0000E+00 -3.4694E-18  0.0000E+00  0.0000E+00
  34     0.0000E+00  0.0000E+00  0.0000E+00  0.0000E+00  4.4141E-03  0.0000E+00  0.0000E+00  4.5665E-02  0.0000E+00  0.0000E+00
  35    -2.6056E-02 -9.1063E-02  8.6736E-19  2.3368E-02  0.0000E+00  1.3878E-17  1.4411E-01  0.0000E+00 -1.2143E-17  1.6657E-01
  36     3.4694E-18  1.3878E-17  4.4141E-03 -1.7347E-18  0.0000E+00  4.5665E-02 -1.7347E-17  0.0000E+00  1.2295E-01 -1.0408E-17

             31          32          33          34          35          36
  31     1.9057E-01
  32     0.0000E+00  6.5232E-02
  33     0.0000E+00  0.0000E+00  1.7189E-02
  34     1.2295E-01  0.0000E+00 -3.4694E-18 -1.2251E-01
  35     0.0000E+00  8.3213E-02  0.0000E+00  0.0000E+00  1.6132E-01
  36     0.0000E+00 -6.9389E-18  0.0000E+00  0.0000E+00 -6.2450E-17 -1.2251E-01

 OVERLAP MATRIX - CELL N.   8( -2 -1  0)

              1           2           3           4           5           6           7           8           9          10

   1     0.0000E+00
   2     0.0000E+00  0.0000E+00
   3     0.0000E+00  0.0000E+00  1.5329E-08
   4     1.4089E-07  1.0744E-06  3.6711E-05  9.3784E-04
   5     0.0000E+00  0.0000E+00 -1.0260E-07 -1.0795E-04 -6.2600E-07
   6     0.0000E+00  0.0000E+00  0.0000E+00  0.0000E+00  0.0000E+00  1.8757E-08
   7     0.0000E+00  0.0000E+00  0.0000E+00  0.0000E+00  0.0000E+00  0.0000E+00  1.8757E-08
   8     0.0000E+00  0.0000E+00 -8.3999E-08 -1.1892E-04 -5.3846E-07  0.0000E+00  0.0000E+00 -4.5177E-07
   9     0.0000E+00  0.0000E+00  0.0000E+00  0.0000E+00  0.0000E+00  1.5683E-08  0.0000E+00  0.0000E+00  1.2780E-08
  10     0.0000E+00  0.0000E+00  0.0000E+00  0.0000E+00  0.0000E+00  0.0000E+00  1.5683E-08  0.0000E+00  0.0000E+00  1.2780E-08
  11    -8.8058E-07 -6.3561E-06 -1.8113E-04 -3.3472E-03 -5.0686E-04  0.0000E+00  0.0000E+00 -5.6447E-04  0.0000E+00  0.0000E+00
  12     0.0000E+00  0.0000E+00  0.0000E+00  0.0000E+00  0.0000E+00  2.6535E-05  0.0000E+00  0.0000E+00  2.9178E-05  0.0000E+00
  13     0.0000E+00  0.0000E+00  0.0000E+00  0.0000E+00  0.0000E+00  0.0000E+00  2.6535E-05  0.0000E+00  0.0000E+00  2.9178E-05
  14     0.0000E+00  0.0000E+00  0.0000E+00 -3.6362E-05  0.0000E+00  0.0000E+00  0.0000E+00  0.0000E+00  0.0000E+00  0.0000E+00
  15     0.0000E+00  0.0000E+00  0.0000E+00  0.0000E+00  0.0000E+00  0.0000E+00  0.0000E+00  0.0000E+00  0.0000E+00  0.0000E+00
  16     0.0000E+00  0.0000E+00  0.0000E+00  0.0000E+00  0.0000E+00  0.0000E+00  0.0000E+00  0.0000E+00  0.0000E+00  0.0000E+00
  17     0.0000E+00  0.0000E+00  0.0000E+00  6.2981E-05  0.0000E+00  0.0000E+00  0.0000E+00  0.0000E+00  0.0000E+00  0.0000E+00
  18     0.0000E+00  0.0000E+00  0.0000E+00  0.0000E+00  0.0000E+00  0.0000E+00  0.0000E+00  0.0000E+00  0.0000E+00  0.0000E+00
  19     0.0000E+00  0.0000E+00  0.0000E+00  1.4532E-06  0.0000E+00  0.0000E+00  0.0000E+00  0.0000E+00  0.0000E+00  0.0000E+00
  20     0.0000E+00  0.0000E+00  0.0000E+00  6.6235E-06  0.0000E+00  0.0000E+00  0.0000E+00  0.0000E+00  0.0000E+00  0.0000E+00
  21     0.0000E+00  0.0000E+00  5.5339E-08  1.3612E-04  3.7927E-07  1.3138E-07  0.0000E+00  2.9906E-07  1.0360E-07  0.0000E+00
  22     1.6340E-07  1.5822E-06  7.9062E-05  2.1661E-03  2.3292E-04  8.0685E-05  0.0000E+00  2.5504E-04  8.8348E-05  0.0000E+00
[...]
  33     0.0000E+00  0.0000E+00  0.0000E+00  0.0000E+00  0.0000E+00  0.0000E+00  0.0000E+00  0.0000E+00  0.0000E+00  0.0000E+00
  34     0.0000E+00  0.0000E+00  0.0000E+00  0.0000E+00  0.0000E+00  0.0000E+00  0.0000E+00  0.0000E+00  0.0000E+00  0.0000E+00
  35     0.0000E+00  0.0000E+00  0.0000E+00  0.0000E+00  0.0000E+00  0.0000E+00  0.0000E+00  0.0000E+00  0.0000E+00  0.0000E+00
  36     0.0000E+00  0.0000E+00  0.0000E+00  0.0000E+00  0.0000E+00  0.0000E+00  0.0000E+00  0.0000E+00  0.0000E+00  0.0000E+00

             31          32          33          34          35          36
  31     0.0000E+00
  32     0.0000E+00  0.0000E+00
  33     0.0000E+00  0.0000E+00  0.0000E+00
  34     0.0000E+00  0.0000E+00  0.0000E+00  0.0000E+00
  35     0.0000E+00  0.0000E+00  0.0000E+00  0.0000E+00  0.0000E+00
  36     0.0000E+00  0.0000E+00  0.0000E+00  0.0000E+00  0.0000E+00  0.0000E+00

 FOCK MATRIX - CELL N.  49(  3  4  0)

              1           2           3           4           5           6           7           8           9          10

   1     0.0000E+00
   2     0.0000E+00  0.0000E+00
   3     0.0000E+00  0.0000E+00  0.0000E+00
   4     0.0000E+00  0.0000E+00  0.0000E+00  0.0000E+00
   5     0.0000E+00  0.0000E+00  0.0000E+00  0.0000E+00  0.0000E+00
   6     0.0000E+00  0.0000E+00  0.0000E+00  0.0000E+00  0.0000E+00  0.0000E+00
   7     0.0000E+00  0.0000E+00  0.0000E+00  0.0000E+00  0.0000E+00  0.0000E+00  0.0000E+00
   8     0.0000E+00  0.0000E+00  0.0000E+00  0.0000E+00  0.0000E+00  0.0000E+00  0.0000E+00  0.0000E+00
   9     0.0000E+00  0.0000E+00  0.0000E+00  0.0000E+00  0.0000E+00  0.0000E+00  0.0000E+00  0.0000E+00  0.0000E+00
  10     0.0000E+00  0.0000E+00  0.0000E+00  0.0000E+00  0.0000E+00  0.0000E+00  0.0000E+00  0.0000E+00  0.0000E+00  0.0000E+00
  11     0.0000E+00  0.0000E+00  0.0000E+00  0.0000E+00  0.0000E+00  0.0000E+00  0.0000E+00  0.0000E+00  0.0000E+00  0.0000E+00
  12     0.0000E+00  0.0000E+00  0.0000E+00  0.0000E+00  0.0000E+00  0.0000E+00  0.0000E+00  0.0000E+00  0.0000E+00  0.0000E+00
  13     0.0000E+00  0.0000E+00  0.0000E+00  0.0000E+00  0.0000E+00  0.0000E+00  0.0000E+00  0.0000E+00  0.0000E+00  0.0000E+00
  14     0.0000E+00  0.0000E+00  0.0000E+00  0.0000E+00  0.0000E+00  0.0000E+00  0.0000E+00  0.0000E+00  0.0000E+00  0.0000E+00
  15     0.0000E+00  0.0000E+00  0.0000E+00  0.0000E+00  0.0000E+00  0.0000E+00  0.0000E+00  0.0000E+00  0.0000E+00  0.0000E+00
  16     0.0000E+00  0.0000E+00  0.0000E+00  0.0000E+00  0.0000E+00  0.0000E+00  0.0000E+00  0.0000E+00  0.0000E+00  0.0000E+00
  17     0.0000E+00  0.0000E+00  0.0000E+00  0.0000E+00  0.0000E+00  0.0000E+00  0.0000E+00  0.0000E+00  0.0000E+00  0.0000E+00
  18     0.0000E+00  0.0000E+00  0.0000E+00  0.0000E+00  0.0000E+00  0.0000E+00  0.0000E+00  0.0000E+00  0.0000E+00  0.0000E+00
  19     0.0000E+00  0.0000E+00  0.0000E+00  0.0000E+00  0.0000E+00  0.0000E+00  0.0000E+00  0.0000E+00  0.0000E+00  0.0000E+00
  20     0.0000E+00  0.0000E+00  0.0000E+00  0.0000E+00  0.0000E+00  0.0000E+00  0.0000E+00  0.0000E+00  0.0000E+00  0.0000E+00
  21     0.0000E+00  0.0000E+00  0.0000E+00  0.0000E+00  0.0000E+00  0.0000E+00  0.0000E+00  0.0000E+00  0.0000E+00  0.0000E+00
  22     0.0000E+00  0.0000E+00  0.0000E+00  0.0000E+00  0.0000E+00  0.0000E+00  0.0000E+00  0.0000E+00  0.0000E+00  0.0000E+00
  23     0.0000E+00  0.0000E+00  0.0000E+00  0.0000E+00  0.0000E+00  0.0000E+00  0.0000E+00  0.0000E+00  0.0000E+00  0.0000E+00
  24     0.0000E+00  0.0000E+00  0.0000E+00  0.0000E+00  0.0000E+00  0.0000E+00  0.0000E+00  0.0000E+00  0.0000E+00  0.0000E+00
  25     0.0000E+00  0.0000E+00  0.0000E+00  0.0000E+00  0.0000E+00  0.0000E+00  0.0000E+00  0.0000E+00  0.0000E+00  0.0000E+00
  26     0.0000E+00  0.0000E+00  0.0000E+00  0.0000E+00  0.0000E+00  0.0000E+00  0.0000E+00  0.0000E+00  0.0000E+00  0.0000E+00
  27     0.0000E+00  0.0000E+00  0.0000E+00  0.0000E+00  0.0000E+00  0.0000E+00  0.0000E+00  0.0000E+00  0.0000E+00  0.0000E+00
  28     0.0000E+00  0.0000E+00  0.0000E+00  0.0000E+00  0.0000E+00  0.0000E+00  0.0000E+00  0.0000E+00  0.0000E+00  0.0000E+00
  29     0.0000E+00  0.0000E+00  0.0000E+00  0.0000E+00  0.0000E+00  0.0000E+00  0.0000E+00  0.0000E+00  0.0000E+00  0.0000E+00
  30     0.0000E+00  0.0000E+00  0.0000E+00  0.0000E+00  0.0000E+00  0.0000E+00  0.0000E+00  0.0000E+00  0.0000E+00  0.0000E+00
  31     0.0000E+00  0.0000E+00  0.0000E+00  0.0000E+00  0.0000E+00  0.0000E+00  0.0000E+00  0.0000E+00  0.0000E+00  0.0000E+00
  32     0.0000E+00  0.0000E+00  0.0000E+00  0.0000E+00  0.0000E+00  0.0000E+00  0.0000E+00  0.0000E+00  0.0000E+00  0.0000E+00
  33     0.0000E+00  0.0000E+00  0.0000E+00  0.0000E+00  0.0000E+00  0.0000E+00  0.0000E+00  0.0000E+00  0.0000E+00  0.0000E+00
  34     0.0000E+00  0.0000E+00  0.0000E+00  0.0000E+00  0.0000E+00  0.0000E+00  0.0000E+00  0.0000E+00  0.0000E+00  0.0000E+00
  35     0.0000E+00  0.0000E+00  0.0000E+00  0.0000E+00  0.0000E+00  0.0000E+00  0.0000E+00  0.0000E+00  0.0000E+00  0.0000E+00
  36     0.0000E+00  0.0000E+00  0.0000E+00  0.0000E+00  0.0000E+00  0.0000E+00  0.0000E+00  0.0000E+00  0.0000E+00  0.0000E+00

             11          12          13          14          15          16          17          18          19          20

  11     0.0000E+00
  12     0.0000E+00  0.0000E+00
  13     0.0000E+00  0.0000E+00  0.0000E+00
  14     0.0000E+00  0.0000E+00  0.0000E+00  0.0000E+00
  15     0.0000E+00  0.0000E+00  0.0000E+00  0.0000E+00  0.0000E+00
  16     0.0000E+00  0.0000E+00  0.0000E+00  0.0000E+00  0.0000E+00  0.0000E+00
  17     0.0000E+00  0.0000E+00  0.0000E+00  0.0000E+00  0.0000E+00  0.0000E+00  0.0000E+00
  18     0.0000E+00  0.0000E+00  0.0000E+00  0.0000E+00  0.0000E+00  0.0000E+00  0.0000E+00  0.0000E+00
  19     0.0000E+00  0.0000E+00  0.0000E+00  0.0000E+00  0.0000E+00  0.0000E+00  0.0000E+00  0.0000E+00  0.0000E+00
  20     0.0000E+00  0.0000E+00  0.0000E+00  0.0000E+00  0.0000E+00  0.0000E+00  0.0000E+00  0.0000E+00  0.0000E+00  0.0000E+00
  21     0.0000E+00  0.0000E+00  0.0000E+00  0.0000E+00  0.0000E+00  0.0000E+00  0.0000E+00  0.0000E+00  0.0000E+00  0.0000E+00
  22     0.0000E+00  0.0000E+00  0.0000E+00  0.0000E+00  0.0000E+00  0.0000E+00  0.0000E+00  0.0000E+00  0.0000E+00  0.0000E+00
  23     0.0000E+00  0.0000E+00  0.0000E+00  0.0000E+00  0.0000E+00  0.0000E+00  0.0000E+00  0.0000E+00  0.0000E+00  0.0000E+00
  24     0.0000E+00  0.0000E+00  0.0000E+00  0.0000E+00  0.0000E+00  0.0000E+00  0.0000E+00  0.0000E+00  0.0000E+00  0.0000E+00
  25     0.0000E+00  0.0000E+00  0.0000E+00  0.0000E+00  0.0000E+00  0.0000E+00  0.0000E+00  0.0000E+00  0.0000E+00  0.0000E+00
  26     0.0000E+00  0.0000E+00  0.0000E+00  0.0000E+00  0.0000E+00  0.0000E+00  0.0000E+00  0.0000E+00  0.0000E+00  0.0000E+00
  27     0.0000E+00  0.0000E+00  0.0000E+00  0.0000E+00  0.0000E+00  0.0000E+00  0.0000E+00  0.0000E+00  0.0000E+00  0.0000E+00
  28     0.0000E+00  0.0000E+00  0.0000E+00  0.0000E+00  0.0000E+00  0.0000E+00  0.0000E+00  0.0000E+00  0.0000E+00  0.0000E+00
  29     0.0000E+00  0.0000E+00  0.0000E+00  0.0000E+00  0.0000E+00  0.0000E+00  0.0000E+00  0.0000E+00  0.0000E+00  0.0000E+00
  30     0.0000E+00  0.0000E+00  0.0000E+00  0.0000E+00  0.0000E+00  0.0000E+00  0.0000E+00  0.0000E+00  0.0000E+00  0.0000E+00
  31     0.0000E+00  0.0000E+00  0.0000E+00  0.0000E+00  0.0000E+00  0.0000E+00  0.0000E+00  0.0000E+00  0.0000E+00  0.0000E+00
  32     0.0000E+00  0.0000E+00  0.0000E+00  0.0000E+00  0.0000E+00  0.0000E+00  0.0000E+00  0.0000E+00  0.0000E+00  0.0000E+00
  33     0.0000E+00  0.0000E+00  0.0000E+00  0.0000E+00  0.0000E+00  0.0000E+00  0.0000E+00  0.0000E+00  0.0000E+00  0.0000E+00
  34     0.0000E+00  0.0000E+00  0.0000E+00  0.0000E+00  0.0000E+00  0.0000E+00  0.0000E+00  0.0000E+00  0.0000E+00  0.0000E+00
  35     0.0000E+00  0.0000E+00  0.0000E+00  0.0000E+00  0.0000E+00  0.0000E+00  0.0000E+00  0.0000E+00  0.0000E+00  0.0000E+00
  36     0.0000E+00  0.0000E+00  0.0000E+00  0.0000E+00  0.0000E+00  0.0000E+00  0.0000E+00  0.0000E+00  0.0000E+00  0.0000E+00

             21          22          23          24          25          26          27          28          29          30

  21     0.0000E+00
  22     0.0000E+00  0.0000E+00
  23     0.0000E+00  0.0000E+00  0.0000E+00
  24     0.0000E+00  0.0000E+00  0.0000E+00  0.0000E+00
  25     0.0000E+00  0.0000E+00  0.0000E+00  0.0000E+00  0.0000E+00
  26     0.0000E+00  0.0000E+00  0.0000E+00  0.0000E+00  0.0000E+00  0.0000E+00
  27     0.0000E+00  0.0000E+00  0.0000E+00  0.0000E+00  0.0000E+00  0.0000E+00  0.0000E+00
  28     0.0000E+00  0.0000E+00  0.0000E+00  0.0000E+00  0.0000E+00  0.0000E+00  0.0000E+00  0.0000E+00
  29     0.0000E+00  0.0000E+00  0.0000E+00  0.0000E+00  0.0000E+00  0.0000E+00  0.0000E+00  0.0000E+00  0.0000E+00
  30     0.0000E+00  0.0000E+00  0.0000E+00  0.0000E+00  0.0000E+00  0.0000E+00  0.0000E+00  0.0000E+00  0.0000E+00  0.0000E+00
  31     0.0000E+00  0.0000E+00  0.0000E+00  0.0000E+00  0.0000E+00  0.0000E+00  0.0000E+00  0.0000E+00  0.0000E+00  0.0000E+00
  32     0.0000E+00  0.0000E+00  0.0000E+00  0.0000E+00  0.0000E+00  0.0000E+00  0.0000E+00  0.0000E+00  0.0000E+00  0.0000E+00
  33     0.0000E+00  0.0000E+00  0.0000E+00  0.0000E+00  0.0000E+00  0.0000E+00  0.0000E+00  0.0000E+00  0.0000E+00  0.0000E+00
  34     0.0000E+00  0.0000E+00  0.0000E+00  0.0000E+00  0.0000E+00  0.0000E+00  0.0000E+00  0.0000E+00  0.0000E+00  0.0000E+00
  35     0.0000E+00  0.0000E+00  0.0000E+00  0.0000E+00  0.0000E+00  0.0000E+00  0.0000E+00  0.0000E+00  0.0000E+00  0.0000E+00
  36     0.0000E+00  0.0000E+00  0.0000E+00  0.0000E+00  0.0000E+00  0.0000E+00  0.0000E+00  0.0000E+00  0.0000E+00  0.0000E+00

             31          32          33          34          35          36
  31     0.0000E+00
  32     0.0000E+00  0.0000E+00
  33     0.0000E+00  0.0000E+00  0.0000E+00
  34     0.0000E+00  0.0000E+00  0.0000E+00  0.0000E+00
  35     0.0000E+00  0.0000E+00  0.0000E+00  0.0000E+00  0.0000E+00
  36     0.0000E+00  0.0000E+00  0.0000E+00  0.0000E+00  0.0000E+00  0.0000E+00

 FOCK MATRIX - CELL N.  50( -3  1  0)

              1           2           3           4           5           6           7           8           9          10

   1     0.0000E+00
   2     0.0000E+00  0.0000E+00
   3     0.0000E+00  0.0000E+00  0.0000E+00
   4     0.0000E+00  0.0000E+00  0.0000E+00  0.0000E+00
   5     0.0000E+00  0.0000E+00  0.0000E+00  0.0000E+00  0.0000E+00
   6     0.0000E+00  0.0000E+00  0.0000E+00  0.0000E+00  0.0000E+00  0.0000E+00
   7     0.0000E+00  0.0000E+00  0.0000E+00  0.0000E+00  0.0000E+00  0.0000E+00  0.0000E+00
   8     0.0000E+00  0.0000E+00  0.0000E+00  0.0000E+00  0.0000E+00  0.0000E+00  0.0000E+00  0.0000E+00
   9     0.0000E+00  0.0000E+00  0.0000E+00  0.0000E+00  0.0000E+00  0.0000E+00  0.0000E+00  0.0000E+00  0.0000E+00
  10     0.0000E+00  0.0000E+00  0.0000E+00  0.0000E+00  0.0000E+00  0.0000E+00  0.0000E+00  0.0000E+00  0.0000E+00  0.0000E+00
  11     0.0000E+00  0.0000E+00  0.0000E+00  0.0000E+00  0.0000E+00  0.0000E+00  0.0000E+00  0.0000E+00  0.0000E+00  0.0000E+00
  12     0.0000E+00  0.0000E+00  0.0000E+00  0.0000E+00  0.0000E+00  0.0000E+00  0.0000E+00  0.0000E+00  0.0000E+00  0.0000E+00
  13     0.0000E+00  0.0000E+00  0.0000E+00  0.0000E+00  0.0000E+00  0.0000E+00  0.0000E+00  0.0000E+00  0.0000E+00  0.0000E+00
  14     0.0000E+00  0.0000E+00  0.0000E+00  0.0000E+00  0.0000E+00  0.0000E+00  0.0000E+00  0.0000E+00  0.0000E+00  0.0000E+00
  15     0.0000E+00  0.0000E+00  0.0000E+00  0.0000E+00  0.0000E+00  0.0000E+00  0.0000E+00  0.0000E+00  0.0000E+00  0.0000E+00
  16     0.0000E+00  0.0000E+00  0.0000E+00  0.0000E+00  0.0000E+00  0.0000E+00  0.0000E+00  0.0000E+00  0.0000E+00  0.0000E+00
  17     0.0000E+00  0.0000E+00  0.0000E+00  0.0000E+00  0.0000E+00  0.0000E+00  0.0000E+00  0.0000E+00  0.0000E+00  0.0000E+00
  18     0.0000E+00  0.0000E+00  0.0000E+00  0.0000E+00  0.0000E+00  0.0000E+00  0.0000E+00  0.0000E+00  0.0000E+00  0.0000E+00
  19     0.0000E+00  0.0000E+00  0.0000E+00  0.0000E+00  0.0000E+00  0.0000E+00  0.0000E+00  0.0000E+00  0.0000E+00  0.0000E+00
  20     0.0000E+00  0.0000E+00  0.0000E+00  0.0000E+00  0.0000E+00  0.0000E+00  0.0000E+00  0.0000E+00  0.0000E+00  0.0000E+00
  21     0.0000E+00  0.0000E+00  0.0000E+00  0.0000E+00  0.0000E+00  0.0000E+00  0.0000E+00  0.0000E+00  0.0000E+00  0.0000E+00
  22     0.0000E+00  0.0000E+00  0.0000E+00  0.0000E+00  0.0000E+00  0.0000E+00  0.0000E+00  0.0000E+00  0.0000E+00  0.0000E+00
  23     0.0000E+00  0.0000E+00  0.0000E+00  0.0000E+00  0.0000E+00  0.0000E+00  0.0000E+00  0.0000E+00  0.0000E+00  0.0000E+00
  24     0.0000E+00  0.0000E+00  0.0000E+00  0.0000E+00  0.0000E+00  0.0000E+00  0.0000E+00  0.0000E+00  0.0000E+00  0.0000E+00
  25     0.0000E+00  0.0000E+00  0.0000E+00  0.0000E+00  0.0000E+00  0.0000E+00  0.0000E+00  0.0000E+00  0.0000E+00  0.0000E+00
  26     0.0000E+00  0.0000E+00  0.0000E+00  0.0000E+00  0.0000E+00  0.0000E+00  0.0000E+00  0.0000E+00  0.0000E+00  0.0000E+00
  27     0.0000E+00  0.0000E+00  0.0000E+00  0.0000E+00  0.0000E+00  0.0000E+00  0.0000E+00  0.0000E+00  0.0000E+00  0.0000E+00
  28     0.0000E+00  0.0000E+00  0.0000E+00  0.0000E+00  0.0000E+00  0.0000E+00  0.0000E+00  0.0000E+00  0.0000E+00  0.0000E+00
  29     0.0000E+00  0.0000E+00  0.0000E+00  3.9035E-07  0.0000E+00  0.0000E+00  0.0000E+00  0.0000E+00  0.0000E+00  0.0000E+00
  30     0.0000E+00  0.0000E+00  0.0000E+00  1.3449E-07  0.0000E+00  0.0000E+00  0.0000E+00  0.0000E+00  0.0000E+00  0.0000E+00
  31     0.0000E+00  0.0000E+00  0.0000E+00  2.9967E-12  0.0000E+00  0.0000E+00  0.0000E+00  0.0000E+00  0.0000E+00  0.0000E+00
  32     0.0000E+00  0.0000E+00  0.0000E+00  0.0000E+00  0.0000E+00  0.0000E+00  0.0000E+00  0.0000E+00  0.0000E+00  0.0000E+00
  33     0.0000E+00  0.0000E+00  0.0000E+00  0.0000E+00  0.0000E+00  0.0000E+00  0.0000E+00  0.0000E+00  0.0000E+00  0.0000E+00
  34     0.0000E+00  0.0000E+00  0.0000E+00  0.0000E+00  0.0000E+00  0.0000E+00  0.0000E+00  0.0000E+00  0.0000E+00  0.0000E+00
  35     0.0000E+00  0.0000E+00  0.0000E+00  0.0000E+00  0.0000E+00  0.0000E+00  0.0000E+00  0.0000E+00  0.0000E+00  0.0000E+00
  36     0.0000E+00  0.0000E+00  0.0000E+00  0.0000E+00  0.0000E+00  0.0000E+00  0.0000E+00  0.0000E+00  0.0000E+00  0.0000E+00

             11          12          13          14          15          16          17          18          19          20

  11     0.0000E+00
  12     0.0000E+00  0.0000E+00
  13     0.0000E+00  0.0000E+00  0.0000E+00
  14     0.0000E+00  0.0000E+00  0.0000E+00  0.0000E+00
  15     0.0000E+00  0.0000E+00  0.0000E+00  0.0000E+00  0.0000E+00
  16     0.0000E+00  0.0000E+00  0.0000E+00  0.0000E+00  0.0000E+00  0.0000E+00
  17     0.0000E+00  0.0000E+00  0.0000E+00  0.0000E+00  0.0000E+00  0.0000E+00  0.0000E+00
  18     0.0000E+00  0.0000E+00  0.0000E+00  0.0000E+00  0.0000E+00  0.0000E+00  0.0000E+00  0.0000E+00
  19     0.0000E+00  0.0000E+00  0.0000E+00  0.0000E+00  0.0000E+00  0.0000E+00  0.0000E+00  0.0000E+00  0.0000E+00
  20     0.0000E+00  0.0000E+00  0.0000E+00  0.0000E+00  0.0000E+00  0.0000E+00  0.0000E+00  0.0000E+00  0.0000E+00  0.0000E+00
  21     0.0000E+00  0.0000E+00  0.0000E+00  0.0000E+00  0.0000E+00  0.0000E+00  0.0000E+00  0.0000E+00  0.0000E+00  0.0000E+00
  22     0.0000E+00  0.0000E+00  0.0000E+00  0.0000E+00  0.0000E+00  0.0000E+00  0.0000E+00  0.0000E+00  0.0000E+00  0.0000E+00
  23     0.0000E+00  0.0000E+00  0.0000E+00  0.0000E+00  0.0000E+00  0.0000E+00  0.0000E+00  0.0000E+00  0.0000E+00  0.0000E+00
  24     0.0000E+00  0.0000E+00  0.0000E+00  0.0000E+00  0.0000E+00  0.0000E+00  0.0000E+00  0.0000E+00  0.0000E+00  0.0000E+00
  25     0.0000E+00  0.0000E+00  0.0000E+00  0.0000E+00  0.0000E+00  0.0000E+00  0.0000E+00  0.0000E+00  0.0000E+00  0.0000E+00
  26     0.0000E+00  0.0000E+00  0.0000E+00  0.0000E+00  0.0000E+00  0.0000E+00  0.0000E+00  0.0000E+00  0.0000E+00  0.0000E+00
  27     0.0000E+00  0.0000E+00  0.0000E+00  0.0000E+00  0.0000E+00  0.0000E+00  0.0000E+00  0.0000E+00  0.0000E+00  0.0000E+00
  28     0.0000E+00  0.0000E+00  0.0000E+00  0.0000E+00  0.0000E+00  0.0000E+00  0.0000E+00  0.0000E+00  0.0000E+00  0.0000E+00
  29     2.7456E-07  1.0295E-06 -3.1072E-11  0.0000E+00  0.0000E+00  0.0000E+00  0.0000E+00  0.0000E+00  0.0000E+00  0.0000E+00
  30    -2.0194E-07 -1.2371E-07  3.1133E-11  0.0000E+00  0.0000E+00  0.0000E+00  0.0000E+00  0.0000E+00  0.0000E+00  0.0000E+00
  31     1.5996E-11 -9.3026E-12 -1.3875E-06  0.0000E+00  0.0000E+00  0.0000E+00  0.0000E+00  0.0000E+00  0.0000E+00  0.0000E+00
  32     0.0000E+00  0.0000E+00  0.0000E+00  0.0000E+00  0.0000E+00  0.0000E+00  0.0000E+00  0.0000E+00  0.0000E+00  0.0000E+00
  33     0.0000E+00  0.0000E+00  0.0000E+00  0.0000E+00  0.0000E+00  0.0000E+00  0.0000E+00  0.0000E+00  0.0000E+00  0.0000E+00
  34     0.0000E+00  0.0000E+00  0.0000E+00  0.0000E+00  0.0000E+00  0.0000E+00  0.0000E+00  0.0000E+00  0.0000E+00  0.0000E+00
  35     0.0000E+00  0.0000E+00  0.0000E+00  0.0000E+00  0.0000E+00  0.0000E+00  0.0000E+00  0.0000E+00  0.0000E+00  0.0000E+00
  36     0.0000E+00  0.0000E+00  0.0000E+00  0.0000E+00  0.0000E+00  0.0000E+00  0.0000E+00  0.0000E+00  0.0000E+00  0.0000E+00

             21          22          23          24          25          26          27          28          29          30

  21     0.0000E+00
  22     0.0000E+00  0.0000E+00
  23     0.0000E+00  0.0000E+00  0.0000E+00
  24     0.0000E+00  0.0000E+00  0.0000E+00  0.0000E+00
  25     0.0000E+00  0.0000E+00  0.0000E+00  0.0000E+00  0.0000E+00
  26     0.0000E+00  0.0000E+00  0.0000E+00  0.0000E+00  0.0000E+00  0.0000E+00
  27     0.0000E+00  0.0000E+00  0.0000E+00  0.0000E+00  0.0000E+00  0.0000E+00  0.0000E+00
  28     0.0000E+00  0.0000E+00  0.0000E+00  0.0000E+00  0.0000E+00  0.0000E+00  0.0000E+00  0.0000E+00
  29     0.0000E+00  0.0000E+00  0.0000E+00  0.0000E+00  0.0000E+00  0.0000E+00  0.0000E+00  0.0000E+00  0.0000E+00
  30     0.0000E+00  0.0000E+00  0.0000E+00  0.0000E+00  0.0000E+00  0.0000E+00  0.0000E+00  0.0000E+00  0.0000E+00  0.0000E+00
  31     0.0000E+00  0.0000E+00  0.0000E+00  0.0000E+00  0.0000E+00  0.0000E+00  0.0000E+00  0.0000E+00  0.0000E+00  0.0000E+00
  32     0.0000E+00  0.0000E+00  0.0000E+00  0.0000E+00  0.0000E+00  0.0000E+00  0.0000E+00  0.0000E+00  0.0000E+00  0.0000E+00
  33     0.0000E+00  0.0000E+00  0.0000E+00  0.0000E+00  0.0000E+00  0.0000E+00  0.0000E+00  0.0000E+00  0.0000E+00  0.0000E+00
  34     0.0000E+00  0.0000E+00  0.0000E+00  0.0000E+00  0.0000E+00  0.0000E+00  0.0000E+00  0.0000E+00  0.0000E+00  0.0000E+00
  35     0.0000E+00  0.0000E+00  0.0000E+00  0.0000E+00  0.0000E+00  0.0000E+00  0.0000E+00  0.0000E+00  0.0000E+00  0.0000E+00
  36     0.0000E+00  0.0000E+00  0.0000E+00  0.0000E+00  0.0000E+00  0.0000E+00  0.0000E+00  0.0000E+00  0.0000E+00  0.0000E+00

             31          32          33          34          35          36
  31     0.0000E+00
  32     0.0000E+00  0.0000E+00
  33     0.0000E+00  0.0000E+00  0.0000E+00
  34     0.0000E+00  0.0000E+00  0.0000E+00  0.0000E+00
  35     0.0000E+00  0.0000E+00  0.0000E+00  0.0000E+00  0.0000E+00
  36     0.0000E+00  0.0000E+00  0.0000E+00  0.0000E+00  0.0000E+00  0.0000E+00
 TTTTTTTTTTTTTTTTTTTTTTTTTTTTTT BASISSET    TELAPSE        0.15 TCPU        0.11
 ENDPROP   
 TTTTTTTTTTTTTTTTTTTTTTTTTTTTTT END         TELAPSE        0.15 TCPU        0.11
 EEEEEEEEEE TERMINATION  DATE 25 10 2022 TIME 14:46:19.7
Tue Oct 25 14:46:19 CEST 2022
Contents of temporary directory:
total 736
-rw-r--r-- 1 antonio antonio  77672 Oct 25 14:46 fort.11
-rw-r--r-- 1 antonio antonio 303416 Oct 25 14:46 fort.13
-rw-r--r-- 1 antonio antonio  77672 Oct 25 14:46 fort.3
-rwxr-xr-x 1 antonio antonio 161548 Oct 25 14:46 fort.9
file fort.13 saved as /mnt/c/Users/garci/Documents/PhD/Contenido/Crystal/utils17/AAbase.f13
removing temporary directories /home/antonio/tmp/tmp_p110_antonio
