 *******************************************************************************
 *                                                                             *
 *                               CRYSTAL17                                     *
 *                      public : 1.0.2 - March 1st, 2018                       *
 *                       HTTP://WWW.CRYSTAL.UNITO.IT                           *
 *                                                                             *
 *                              MAIN AUTHORS                                   *
 *                                                                             *
 *  R. DOVESI(1,11), V.R. SAUNDERS(2), C. ROETTI(1,11), R. ORLANDO(1,11),      *
 *  C.M. ZICOVICH-WILSON(1,3), F. PASCALE(4), B. CIVALLERI(1,11),              *
 *  K. DOLL(5), N.M. HARRISON(2,6), I.J. BUSH(7), Ph. D'ARCO(8),               *
 *  M. LLUNELL(9), M. CAUSA'(10), Y. NOEL(8), L. MASCHIO(1,11), A. ERBA(1,11)  *
 *  M. RE'RAT(14), S. CASASSA(1,11)                                            *
 *                                                                             *
 *        CONTRIBUTIONS TO THE CODE HAVE ALSO BEEN GIVEN BY                    *
 *                                                                             *
 *  M. FERRABONE(1,11), M. DE LA PIERRE(1,11), M. FERRERO(1,11),               *
 *  J. BAIMA(1,11), E. ALBANESE(1,11), M.F. PEINTINGER(12), R. BAST(13),       *
 *  B. KIRTMAN(15), V. LACIVITA(1,11), R. DEMICHELIS(1,16)                     *
 *  G. BRANDEBURG(17), S. SALUSTRO(1,11), G. SANSONE(1,11)                     *
 *  M.T. RUGGIERO(18)                                                          *
 *                                                                             *
 * (1) THEORETICAL CHEMISTRY GROUP - UNIVERSITA' DI TORINO - TORINO (ITALY)    *
 * (2) COMPUTATIONAL SCIENCE & ENGINEERING DEPARTMENT - STFC DARESBURY (UK)    *
 * (3) UNIVERSIDAD AUTONOMA DEL ESTADO DE MORELOS - CUERNAVACA (MEXICO)        *
 * (4) UNIVERSITE' DE LORRAINE - NANCY (FRANCE)                                *
 * (5) UNIVERSITAET STUTTGART- STUTTGART (GERMANY)                             *
 * (6) IMPERIAL COLLEGE - LONDON (UK)                                          *
 * (7) OXFORD E-RESEARCH CENTRE - OXFORD (UK)                                  *
 * (8) UPMC - SORBONNE UNIVERSITES - PARIS (FRANCE)                            *
 * (9) UNIVERSIDAD DE BARCELONA - BARCELONA (SPAIN)                            *
 *(10) UNIVERSITA' DI NAPOLI "FEDERICO II" - NAPOLI (ITALY)                    *
 *(11) NIS - NANOSTRUCTURED INTERFACES AND SURFACES - TORINO (ITALY)           *
 *(12) MPI FUER CHEMISCHE ENERGIEKONVERSION - MUELHEIM AN DER RUHR (GERMANY)   *
 *(13) UNIVERSITY OF TROMSO - TROMSO (NORWAY)                                  *
 *(14) UNIVERSITE' DE PAU ET DES PAYS DE L'ADOUR - PAU (FRANCE)                *
 *(15) UNIVERSITY OF CALIFORNIA SANTA BARBARA - SANTA BARBARA (USA)            *
 *(16) CURTIN UNIVERSITY - PERTH (AUSTRALIA)                                   *
 *(17) UNIVERSITY COLLEGE LONDON - LONDON (UK)                                 *
 *(18) CAMBRIDGE UNIVERSITY - CAMBRIDGE (UK)                                   *
 *                                                                             *
 *******************************************************************************
 EEEEEEEEEE STARTING  DATE 07 10 2021 TIME 18:24:26.4

 *******************************************************************************
 WSe2                                                                            
 CRYSTAL - PROPERTIES - TYPE OF CALCULATION :  RESTRICTED CLOSED SHELL
 *******************************************************************************
 KOHN-SHAM HAMILTONIAN

 (EXCHANGE)[CORRELATION] FUNCTIONAL:(VON BARTH-HEDIN)[VON BARTH-HEDIN]


 DIRECT LATTICE VECTOR COMPONENTS (ANGSTROM)
         2.16506   -1.25000    0.00000
         0.00000    2.50000    0.00000
         0.00000    0.00000  500.00000

 LATTICE PARAMETERS  (ANGSTROM AND DEGREES) - PRIMITIVE CELL
       A          B          C         ALPHA      BETA     GAMMA        VOLUME
    2.50000    2.50000  500.00000     90.0000   90.0000  120.0000       5.41266
 *******************************************************************************
 N. OF ATOMS PER CELL         2 COULOMB OVERLAP TOL          (T1) 10**   -7
 NUMBER OF SHELLS             4 COULOMB PENETRATION TOL      (T2) 10**   -7
 NUMBER OF AO                 8 EXCHANGE OVERLAP TOL         (T3) 10**   20
 N. OF ELECTRONS PER CELL     8 EXCHANGE PSEUDO OVP (F(G))   (T4) 10**   20
 CORE ELECTRONS PER CELL      0 EXCHANGE PSEUDO OVP (P(G))   (T5) 10**   20
 N. OF SYMMETRY OPERATORS     3 POLE ORDER IN MONO ZONE                   4
 CORE  PSEUDO POTENTIAL         TOL. ON PSEUDO              (TP) 10**- 6
 *******************************************************************************
   ATOM N.AT.  SHELL    X(A)      Y(A)      Z(A)      EXAD       N.ELECT.
 *******************************************************************************
    1  205 B     2    -0.722    -1.250     0.000   8.601E-02       2.392
    2  207 N     2    -1.443     0.000     0.000   1.904E-01       5.608
 *******************************************************************************
 DE(K)                   0.000E+00  ENERGY LEVEL SHIFTING        0.00000
 TOTAL ENERGY -1.2809468307633E+01  CONVERGENCE ON ENER        2.789E-07
 KIN. ENERGY   9.3117995892596E+00  VIR. COEFF.           1.01163017E+00
 N. OF SCF CYCLES                6  FERMI ENERGY              -0.304E+00
 WEIGHT OF F(I) IN F(I+1)      95
 SHRINK. FACT.(MONKH.)    16 16  1  SHRINKING FACTOR(GILAT NET)       16
 NUMBER OF K POINTS IN THE IBZ  44  CELL VOLUME (A.U.)         19.328956
 *******************************************************************************

 GCALCO - MAX INDICES DIRECT LATTICE VECTOR    83    83     0
 NO.OF VECTORS CREATED 6999 STARS  503 RMAX   207.70876 BOHR
 TTTTTTTTTTTTTTTTTTTTTTTTTTTTTT gordsh1     TELAPSE        0.03 TCPU        0.00

 MATRIX SIZE: P(G)    3044, F(G)    1718, P(G) IRR     682, F(G) IRR     682
 MAX G-VECTOR INDEX FOR 1- AND 2-ELECTRON INTEGRALS  85


 CAPPA:IS1 16;IS2 16;IS3  1; K PTS MONK NET  44; SYMMOPS:K SPACE   6;G SPACE   3


 *******************************************************************************
 WSe2                                                                            
 CRYSTAL - PROPERTIES - TYPE OF CALCULATION :  RESTRICTED CLOSED SHELL
 *******************************************************************************
 KOHN-SHAM HAMILTONIAN

 (EXCHANGE)[CORRELATION] FUNCTIONAL:(VON BARTH-HEDIN)[VON BARTH-HEDIN]


 DIRECT LATTICE VECTOR COMPONENTS (ANGSTROM)
         2.16506   -1.25000    0.00000
         0.00000    2.50000    0.00000
         0.00000    0.00000  500.00000

 LATTICE PARAMETERS  (ANGSTROM AND DEGREES) - PRIMITIVE CELL
       A          B          C         ALPHA      BETA     GAMMA        VOLUME
    2.50000    2.50000  500.00000     90.0000   90.0000  120.0000       5.41266
 *******************************************************************************
 N. OF ATOMS PER CELL         2 COULOMB OVERLAP TOL          (T1) 10**   -7
 NUMBER OF SHELLS             4 COULOMB PENETRATION TOL      (T2) 10**   -7
 NUMBER OF AO                 8 EXCHANGE OVERLAP TOL         (T3) 10**   20
 N. OF ELECTRONS PER CELL     8 EXCHANGE PSEUDO OVP (F(G))   (T4) 10**   20
 CORE ELECTRONS PER CELL      0 EXCHANGE PSEUDO OVP (P(G))   (T5) 10**   20
 N. OF SYMMETRY OPERATORS     3 POLE ORDER IN MONO ZONE                   4
 CORE  PSEUDO POTENTIAL         TOL. ON PSEUDO              (TP) 10**- 6
 *******************************************************************************
   ATOM N.AT.  SHELL    X(A)      Y(A)      Z(A)      EXAD       N.ELECT.
 *******************************************************************************
    1  205 B     2    -0.722    -1.250     0.000   8.601E-02       2.392
    2  207 N     2    -1.443     0.000     0.000   1.904E-01       5.608
 *******************************************************************************
 DE(K)                   0.000E+00  ENERGY LEVEL SHIFTING        0.00000
 TOTAL ENERGY -1.2809468307633E+01  CONVERGENCE ON ENER        2.789E-07
 KIN. ENERGY   9.3117995892596E+00  VIR. COEFF.           1.01163017E+00
 N. OF SCF CYCLES                6  FERMI ENERGY              -0.304E+00
 WEIGHT OF F(I) IN F(I+1)      95
 SHRINK. FACT.(MONKH.)    16 16  1  SHRINKING FACTOR(GILAT NET)       16
 NUMBER OF K POINTS IN THE IBZ  44  CELL VOLUME (A.U.)         19.328956
 *******************************************************************************

 *******************************************************************************
 LOCAL ATOMIC FUNCTIONS BASIS SET
 *******************************************************************************
   ATOM   X(AU)   Y(AU)   Z(AU)  N. TYPE  EXPONENT  S COEF   P COEF   D/F/G COEF
 *******************************************************************************
   1 B   -1.364  -2.362   0.000
                                  1 S  
                                         2.926E+00-5.119E-01 0.000E+00 0.000E+00
                                         2.964E-01 3.594E-01 0.000E+00 0.000E+00
                                         1.306E-01 1.457E-01 0.000E+00 0.000E+00
                                         6.673E-02 4.354E-02 0.000E+00 0.000E+00
                           2-     4 P  
                                         4.864E+00 0.000E+00 1.175E+00 0.000E+00
                                         1.019E+00 0.000E+00 8.442E-01 0.000E+00
                                         2.879E-01 0.000E+00 3.781E-01 0.000E+00
                                         8.601E-02 0.000E+00 6.778E-02 0.000E+00
   2 N   -2.728   0.000   0.000
                                  5 S  
                                         6.261E+00-9.239E-01 0.000E+00 0.000E+00
                                         6.538E-01 6.819E-01 0.000E+00 0.000E+00
                                         3.152E-01 1.677E-01 0.000E+00 0.000E+00
                                         1.734E-01 1.527E-01 0.000E+00 0.000E+00
                           6-     8 P  
                                         1.011E+01 0.000E+00 3.666E+00 0.000E+00
                                         2.269E+00 0.000E+00 2.602E+00 0.000E+00
                                         6.487E-01 0.000E+00 1.046E+00 0.000E+00
                                         1.904E-01 0.000E+00 1.689E-01 0.000E+00

 OVERLAP MATRIX - CELL N.   1(  0  0  0)

              1           2           3           4           5           6           7           8
   1     1.0000E+00
   2     0.0000E+00  1.0000E+00
   3     0.0000E+00  0.0000E+00  1.0000E+00
   4     0.0000E+00  0.0000E+00  0.0000E+00  1.0000E+00
   5     4.0666E-01 -2.5636E-01  4.4403E-01  0.0000E+00  1.0000E+00
   6     1.7696E-01  1.6187E-01  2.2171E-01  0.0000E+00  0.0000E+00  1.0000E+00
   7    -3.0650E-01  2.2171E-01 -9.4134E-02  0.0000E+00  0.0000E+00  0.0000E+00  1.0000E+00
   8     0.0000E+00  0.0000E+00  0.0000E+00  2.8987E-01  0.0000E+00  0.0000E+00  0.0000E+00  1.0000E+00

 OVERLAP MATRIX - CELL N.   2( -1 -1  0)

              1           2           3           4           5           6           7           8
   1     1.9580E-01
   2    -2.5173E-01 -1.6817E-01
   3    -1.4534E-01 -1.8428E-01  4.4616E-02
   4     0.0000E+00  0.0000E+00  0.0000E+00  1.5101E-01
   5     5.7117E-02  6.3721E-02  1.1037E-01  0.0000E+00  4.2715E-02
   6    -3.9670E-02 -4.5885E-03 -7.4852E-02  0.0000E+00 -6.9574E-02 -8.3405E-02
   7    -6.8710E-02 -7.4852E-02 -9.1020E-02  0.0000E+00 -4.0169E-02 -6.4702E-02 -8.6942E-03
   8     0.0000E+00  0.0000E+00  0.0000E+00  3.8627E-02  0.0000E+00  0.0000E+00  0.0000E+00  2.8661E-02

 OVERLAP MATRIX - CELL N.   3(  1  1  0)

              1           2           3           4           5           6           7           8
   1     1.9580E-01
   2     2.5173E-01 -1.6817E-01
   3     1.4534E-01 -1.8428E-01  4.4616E-02
   4     0.0000E+00  0.0000E+00  0.0000E+00  1.5101E-01
   5     5.7117E-02 -1.2744E-01  6.9389E-18  0.0000E+00  4.2715E-02
   6     7.9340E-02 -1.3424E-01  0.0000E+00  0.0000E+00  6.9574E-02 -8.3405E-02
   7     0.0000E+00  0.0000E+00  3.8627E-02  0.0000E+00  4.0169E-02 -6.4702E-02 -8.6942E-03
   8     0.0000E+00  0.0000E+00  0.0000E+00  3.8627E-02  0.0000E+00  0.0000E+00  0.0000E+00  2.8661E-02

 OVERLAP MATRIX - CELL N.   4( -1  0  0)

              1           2           3           4           5           6           7           8
   1     1.9580E-01
   2    -2.5173E-01 -1.6817E-01
   3     1.4534E-01  1.8428E-01  4.4616E-02
   4     0.0000E+00  0.0000E+00  0.0000E+00  1.5101E-01
   5     4.0666E-01  5.1273E-01  5.5511E-17  0.0000E+00  4.2715E-02
   6    -3.5391E-01 -2.2214E-01 -1.3878E-17  0.0000E+00 -6.9574E-02 -8.3405E-02
   7    -5.5511E-17 -1.3878E-17  2.8987E-01  0.0000E+00  4.0169E-02  6.4702E-02 -8.6942E-03
   8     0.0000E+00  0.0000E+00  0.0000E+00  2.8987E-01  0.0000E+00  0.0000E+00  0.0000E+00  2.8661E-02

 OVERLAP MATRIX - CELL N.   5(  1  0  0)

              1           2           3           4           5           6           7           8
   1     1.9580E-01
   2     2.5173E-01 -1.6817E-01
   3    -1.4534E-01  1.8428E-01  4.4616E-02
   4     0.0000E+00  0.0000E+00  0.0000E+00  1.5101E-01
   5     1.2105E-02 -2.6347E-02  2.2818E-02  0.0000E+00  4.2715E-02
   6     1.4499E-02 -2.3873E-02  2.7733E-02  0.0000E+00  6.9574E-02 -8.3405E-02
   7    -1.2556E-02  2.7733E-02 -1.5867E-02  0.0000E+00 -4.0169E-02  6.4702E-02 -8.6942E-03
   8     0.0000E+00  0.0000E+00  0.0000E+00  8.1511E-03  0.0000E+00  0.0000E+00  0.0000E+00  2.8661E-02

 OVERLAP MATRIX - CELL N.   6(  0 -1  0)

              1           2           3           4           5           6           7           8
   1     1.9580E-01
   2     0.0000E+00  1.5101E-01
   3    -2.9067E-01  6.9389E-18 -2.7456E-01
   4     0.0000E+00  0.0000E+00  0.0000E+00  1.5101E-01
   5     1.2105E-02 -6.5869E-03  3.4226E-02  0.0000E+00  4.2715E-02
   6     3.6247E-03  6.1496E-03  1.0400E-02  0.0000E+00  6.9389E-18  2.8661E-02
   7    -1.8834E-02  1.0400E-02 -4.5889E-02  0.0000E+00 -8.0338E-02  2.3419E-17 -1.2076E-01
   8     0.0000E+00  0.0000E+00  0.0000E+00  8.1511E-03  0.0000E+00  0.0000E+00  0.0000E+00  2.8661E-02

 OVERLAP MATRIX - CELL N.   7(  0  1  0)

              1           2           3           4           5           6           7           8
   1     1.9580E-01
   2     0.0000E+00  1.5101E-01
   3     2.9067E-01  6.9389E-18 -2.7456E-01
   4     0.0000E+00  0.0000E+00  0.0000E+00  1.5101E-01
   5     4.0666E-01 -2.5636E-01 -4.4403E-01  0.0000E+00  4.2715E-02
   6     1.7696E-01  1.6187E-01 -2.2171E-01  0.0000E+00 -6.9389E-18  2.8661E-02
   7     3.0650E-01 -2.2171E-01 -9.4134E-02  0.0000E+00  8.0338E-02  2.3419E-17 -1.2076E-01
   8     0.0000E+00  0.0000E+00  0.0000E+00  2.8987E-01  0.0000E+00  0.0000E+00  0.0000E+00  2.8661E-02

 OVERLAP MATRIX - CELL N.   8( -2 -1  0)

              1           2           3           4           5           6           7           8
   1     1.7120E-02
   2    -3.9006E-02 -7.5805E-02
   3     0.0000E+00  0.0000E+00  1.3474E-02
   4     0.0000E+00  0.0000E+00  0.0000E+00  1.3474E-02
   5     1.2105E-02  3.2934E-02  1.1409E-02  0.0000E+00  4.3093E-04
   6    -1.8123E-02 -4.1886E-02 -1.7333E-02  0.0000E+00 -1.2082E-03 -3.2662E-03
   7    -6.2781E-03 -1.7333E-02  2.1466E-03  0.0000E+00  0.0000E+00  0.0000E+00  2.6967E-04
   8     0.0000E+00  0.0000E+00  0.0000E+00  8.1511E-03  0.0000E+00  0.0000E+00  0.0000E+00  2.6967E-04

 OVERLAP MATRIX - CELL N.   9(  2  1  0)

              1           2           3           4           5           6           7           8
   1     1.7120E-02
   2     3.9006E-02 -7.5805E-02
   3     0.0000E+00  0.0000E+00  1.3474E-02
   4     0.0000E+00  0.0000E+00  0.0000E+00  1.3474E-02
   5     8.8251E-04 -2.6477E-03  6.5513E-04  0.0000E+00  4.3093E-04
   6     1.6011E-03 -4.9713E-03  1.3509E-03  0.0000E+00  1.2082E-03 -3.2662E-03
   7    -3.9618E-04  1.3509E-03  1.5412E-04  0.0000E+00  0.0000E+00  0.0000E+00  2.6967E-04
   8     0.0000E+00  0.0000E+00  0.0000E+00  4.8838E-04  0.0000E+00  0.0000E+00  0.0000E+00  2.6967E-04

 OVERLAP MATRIX - CELL N.  10( -1 -2  0)

              1           2           3           4           5           6           7           8
   1     1.7120E-02
   2    -1.9503E-02 -8.8458E-03
   3    -3.3780E-02 -3.8659E-02 -5.3485E-02
   4     0.0000E+00  0.0000E+00  0.0000E+00  1.3474E-02
   5     8.8251E-04  7.5648E-04  2.6205E-03  0.0000E+00  4.3093E-04
   6    -4.5747E-04  4.2693E-05 -1.5439E-03  0.0000E+00 -6.0409E-04 -6.1429E-04
   7    -1.5847E-03 -1.5439E-03 -4.8599E-03  0.0000E+00 -1.0463E-03 -1.5311E-03 -2.3822E-03
   8     0.0000E+00  0.0000E+00  0.0000E+00  4.8838E-04  0.0000E+00  0.0000E+00  0.0000E+00  2.6967E-04

 OVERLAP MATRIX - CELL N.  11(  1  2  0)

              1           2           3           4           5           6           7           8
   1     1.7120E-02
   2     1.9503E-02 -8.8458E-03
   3     3.3780E-02 -3.8659E-02 -5.3485E-02
   4     0.0000E+00  0.0000E+00  0.0000E+00  1.3474E-02
   5     1.2105E-02 -2.6347E-02 -2.2818E-02  0.0000E+00  4.3093E-04
   6     1.4499E-02 -2.3873E-02 -2.7733E-02  0.0000E+00  6.0409E-04 -6.1429E-04
   7     1.2556E-02 -2.7733E-02 -1.5867E-02  0.0000E+00  1.0463E-03 -1.5311E-03 -2.3822E-03
   8     0.0000E+00  0.0000E+00  0.0000E+00  8.1511E-03  0.0000E+00  0.0000E+00  0.0000E+00  2.6967E-04

 OVERLAP MATRIX - CELL N.  12( -1  1  0)

              1           2           3           4           5           6           7           8
   1     1.7120E-02
   2    -1.9503E-02 -8.8458E-03
   3     3.3780E-02  3.8659E-02 -5.3485E-02
   4     0.0000E+00  0.0000E+00  0.0000E+00  1.3474E-02
   5     5.7117E-02  6.3721E-02 -1.1037E-01  0.0000E+00  4.3093E-04
   6    -3.9670E-02 -4.5885E-03  7.4852E-02  0.0000E+00 -6.0409E-04 -6.1429E-04
   7     6.8710E-02  7.4852E-02 -9.1020E-02  0.0000E+00  1.0463E-03  1.5311E-03 -2.3822E-03
   8     0.0000E+00  0.0000E+00  0.0000E+00  3.8627E-02  0.0000E+00  0.0000E+00  0.0000E+00  2.6967E-04

 OVERLAP MATRIX - CELL N.  13(  1 -1  0)

              1           2           3           4           5           6           7           8
   1     1.7120E-02
   2     1.9503E-02 -8.8458E-03
   3    -3.3780E-02  3.8659E-02 -5.3485E-02
   4     0.0000E+00  0.0000E+00  0.0000E+00  1.3474E-02
   5     2.6566E-04 -3.8358E-04  6.6439E-04  0.0000E+00  4.3093E-04
   6     2.6768E-04 -3.2672E-04  7.8307E-04  0.0000E+00  6.0409E-04 -6.1429E-04
   7    -4.6364E-04  7.8307E-04 -1.2309E-03  0.0000E+00 -1.0463E-03  1.5311E-03 -2.3822E-03
   8     0.0000E+00  0.0000E+00  0.0000E+00  1.2538E-04  0.0000E+00  0.0000E+00  0.0000E+00  2.6967E-04

 OVERLAP MATRIX - CELL N.  14( -2 -2  0)

              1           2           3           4           5           6           7           8
   1     6.0684E-03
   2    -1.2942E-02 -2.4404E-02
   3    -7.4721E-03 -1.6740E-02 -5.0746E-03
   4     0.0000E+00  0.0000E+00  0.0000E+00  4.5901E-03
   5     8.8251E-04  1.8912E-03  1.9654E-03  0.0000E+00  5.4556E-05
   6    -1.1437E-03 -2.2972E-03 -2.8948E-03  0.0000E+00 -1.4366E-04 -3.6864E-04
   7    -1.1885E-03 -2.8948E-03 -2.5200E-03  0.0000E+00 -8.2941E-05 -2.3077E-04 -1.0217E-04
   8     0.0000E+00  0.0000E+00  0.0000E+00  4.8838E-04  0.0000E+00  0.0000E+00  0.0000E+00  3.1071E-05

 OVERLAP MATRIX - CELL N.  15(  2  2  0)

              1           2           3           4           5           6           7           8
   1     6.0684E-03
   2     1.2942E-02 -2.4404E-02
   3     7.4721E-03 -1.6740E-02 -5.0746E-03
   4     0.0000E+00  0.0000E+00  0.0000E+00  4.5901E-03
   5     8.8251E-04 -2.6477E-03 -6.5513E-04  0.0000E+00  5.4556E-05
   6     1.6011E-03 -4.9713E-03 -1.3509E-03  0.0000E+00  1.4366E-04 -3.6864E-04
   7     3.9618E-04 -1.3509E-03  1.5412E-04  0.0000E+00  8.2941E-05 -2.3077E-04 -1.0217E-04
   8     0.0000E+00  0.0000E+00  0.0000E+00  4.8838E-04  0.0000E+00  0.0000E+00  0.0000E+00  3.1071E-05

 OVERLAP MATRIX - CELL N.  16( -2  0  0)

              1           2           3           4           5           6           7           8
   1     6.0684E-03
   2    -1.2942E-02 -2.4404E-02
   3     7.4721E-03  1.6740E-02 -5.0746E-03
   4     0.0000E+00  0.0000E+00  0.0000E+00  4.5901E-03
   5     1.2105E-02  3.2934E-02 -1.1409E-02  0.0000E+00  5.4556E-05
   6    -1.8123E-02 -4.1886E-02  1.7333E-02  0.0000E+00 -1.4366E-04 -3.6864E-04
   7     6.2781E-03  1.7333E-02  2.1466E-03  0.0000E+00  8.2941E-05  2.3077E-04 -1.0217E-04
   8     0.0000E+00  0.0000E+00  0.0000E+00  8.1511E-03  0.0000E+00  0.0000E+00  0.0000E+00  3.1071E-05

 OVERLAP MATRIX - CELL N.  17(  2  0  0)

              1           2           3           4           5           6           7           8
   1     6.0684E-03
   2     1.2942E-02 -2.4404E-02
   3    -7.4721E-03  1.6740E-02 -5.0746E-03
   4     0.0000E+00  0.0000E+00  0.0000E+00  4.5901E-03
   5     8.2815E-05 -1.7390E-04  1.2908E-04  0.0000E+00  5.4556E-05
   6     1.4369E-04 -3.2483E-04  2.6533E-04  0.0000E+00  1.4366E-04 -3.6864E-04
   7    -1.0666E-04  2.6533E-04 -1.6435E-04  0.0000E+00 -8.2941E-05  2.3077E-04 -1.0217E-04
   8     0.0000E+00  0.0000E+00  0.0000E+00  3.2607E-05  0.0000E+00  0.0000E+00  0.0000E+00  3.1071E-05

 OVERLAP MATRIX - CELL N.  18(  0 -2  0)

              1           2           3           4           5           6           7           8
   1     6.0684E-03
   2     0.0000E+00  4.5901E-03
   3    -1.4944E-02  2.1684E-18 -3.4069E-02
   4     0.0000E+00  0.0000E+00  0.0000E+00  4.5901E-03
   5     8.2815E-05 -2.4842E-05  2.1514E-04  0.0000E+00  5.4556E-05
   6     2.0527E-05  2.5313E-05  6.3173E-05  0.0000E+00  1.3553E-20  3.1071E-05
   7    -1.7777E-04  6.3173E-05 -5.1449E-04  0.0000E+00 -1.6588E-04  4.7434E-20 -5.0188E-04
   8     0.0000E+00  0.0000E+00  0.0000E+00  3.2607E-05  0.0000E+00  0.0000E+00  0.0000E+00  3.1071E-05

 OVERLAP MATRIX - CELL N.  19(  0  2  0)

              1           2           3           4           5           6           7           8
   1     6.0684E-03
   2     0.0000E+00  4.5901E-03
   3     1.4944E-02  2.1684E-18 -3.4069E-02
   4     0.0000E+00  0.0000E+00  0.0000E+00  4.5901E-03
   5     1.2105E-02 -6.5869E-03 -3.4226E-02  0.0000E+00  5.4556E-05
   6     3.6247E-03  6.1496E-03 -1.0400E-02  0.0000E+00 -1.3553E-20  3.1071E-05
   7     1.8834E-02 -1.0400E-02 -4.5889E-02  0.0000E+00  1.6588E-04  4.7434E-20 -5.0188E-04
   8     0.0000E+00  0.0000E+00  0.0000E+00  8.1511E-03  0.0000E+00  0.0000E+00  0.0000E+00  3.1071E-05

 OVERLAP MATRIX - CELL N.  20( -3 -2  0)

              1           2           3           4           5           6           7           8
   1     3.6930E-04
   2    -9.7589E-04 -2.7209E-03
   3    -1.8781E-04 -5.6638E-04  1.1308E-04
   4     0.0000E+00  0.0000E+00  0.0000E+00  2.2208E-04
   5     8.2815E-05  1.9874E-04  8.6056E-05  0.0000E+00  1.4446E-07
   6    -1.6422E-04 -4.3425E-04 -2.0215E-04  0.0000E+00 -4.5035E-07 -1.4422E-06
   7    -7.1109E-05 -2.0215E-04 -5.4928E-05  0.0000E+00 -8.6669E-08 -2.8758E-07 -3.2502E-09
   8     0.0000E+00  0.0000E+00  0.0000E+00  3.2607E-05  0.0000E+00  0.0000E+00  0.0000E+00  5.2094E-08

 OVERLAP MATRIX - CELL N.  21(  3  2  0)

              1           2           3           4           5           6           7           8
   1     3.6930E-04
   2     9.7589E-04 -2.7209E-03
   3     1.8781E-04 -5.6638E-04  1.1308E-04
   4     0.0000E+00  0.0000E+00  0.0000E+00  2.2208E-04
   5     8.5532E-06 -1.7430E-05 -1.1351E-21  0.0000E+00  1.4446E-07
   6     2.0800E-05 -4.7734E-05 -3.2554E-21  0.0000E+00  4.5035E-07 -1.4422E-06
   7     1.3546E-21 -3.2554E-21  2.2524E-06  0.0000E+00  8.6669E-08 -2.8758E-07 -3.2502E-09
   8     0.0000E+00  0.0000E+00  0.0000E+00  2.2524E-06  0.0000E+00  0.0000E+00  0.0000E+00  5.2094E-08

 OVERLAP MATRIX - CELL N.  22( -3 -1  0)

              1           2           3           4           5           6           7           8
   1     3.6930E-04
   2    -9.7589E-04 -2.7209E-03
   3     1.8781E-04  5.6638E-04  1.1308E-04
   4     0.0000E+00  0.0000E+00  0.0000E+00  2.2208E-04
   5     2.6566E-04  7.6717E-04  1.0842E-19  0.0000E+00  1.4446E-07
   6    -5.3537E-04 -1.6830E-03 -2.1684E-19  0.0000E+00 -4.5035E-07 -1.4422E-06
   7    -8.1315E-20 -2.1684E-19  1.2538E-04  0.0000E+00  8.6669E-08  2.8758E-07 -3.2502E-09
   8     0.0000E+00  0.0000E+00  0.0000E+00  1.2538E-04  0.0000E+00  0.0000E+00  0.0000E+00  5.2094E-08

 OVERLAP MATRIX - CELL N.  23(  3  1  0)

              1           2           3           4           5           6           7           8
   1     3.6930E-04
   2     9.7589E-04 -2.7209E-03
   3    -1.8781E-04  5.6638E-04  1.1308E-04
   4     0.0000E+00  0.0000E+00  0.0000E+00  2.2208E-04
   5     2.8012E-06 -4.6870E-06  1.6236E-06  0.0000E+00  1.4446E-07
   6     6.7515E-06 -1.2587E-05  4.5663E-06  0.0000E+00  4.5035E-07 -1.4422E-06
   7    -2.3388E-06  4.5663E-06 -9.8644E-07  0.0000E+00 -8.6669E-08  2.8758E-07 -3.2502E-09
   8     0.0000E+00  0.0000E+00  0.0000E+00  5.9538E-07  0.0000E+00  0.0000E+00  0.0000E+00  5.2094E-08

 OVERLAP MATRIX - CELL N.  24( -2 -3  0)

              1           2           3           4           5           6           7           8
   1     3.6930E-04
   2    -6.5059E-04 -1.0859E-03
   3    -7.5124E-04 -1.5103E-03 -1.5219E-03
   4     0.0000E+00  0.0000E+00  0.0000E+00  2.2208E-04
   5     8.5532E-06  8.7150E-06  1.5095E-05  0.0000E+00  1.4446E-07
   6    -1.0400E-05 -1.0244E-05 -2.1645E-05  0.0000E+00 -3.0023E-07 -6.1204E-07
   7    -1.8013E-05 -2.1645E-05 -3.5237E-05  0.0000E+00 -3.4668E-07 -7.6687E-07 -8.3341E-07
   8     0.0000E+00  0.0000E+00  0.0000E+00  2.2524E-06  0.0000E+00  0.0000E+00  0.0000E+00  5.2094E-08

 OVERLAP MATRIX - CELL N.  25(  2  3  0)

              1           2           3           4           5           6           7           8
   1     3.6930E-04
   2     6.5059E-04 -1.0859E-03
   3     7.5124E-04 -1.5103E-03 -1.5219E-03
   4     0.0000E+00  0.0000E+00  0.0000E+00  2.2208E-04
   5     8.2815E-05 -1.7390E-04 -1.2908E-04  0.0000E+00  1.4446E-07
   6     1.4369E-04 -3.2483E-04 -2.6533E-04  0.0000E+00  3.0023E-07 -6.1204E-07
   7     1.0666E-04 -2.6533E-04 -1.6435E-04  0.0000E+00  3.4668E-07 -7.6687E-07 -8.3341E-07
   8     0.0000E+00  0.0000E+00  0.0000E+00  3.2607E-05  0.0000E+00  0.0000E+00  0.0000E+00  5.2094E-08

 OVERLAP MATRIX - CELL N.  26( -2  1  0)

              1           2           3           4           5           6           7           8
   1     3.6930E-04
   2    -6.5059E-04 -1.0859E-03
   3     7.5124E-04  1.5103E-03 -1.5219E-03
   4     0.0000E+00  0.0000E+00  0.0000E+00  2.2208E-04
   5     8.8251E-04  1.8912E-03 -1.9654E-03  0.0000E+00  1.4446E-07
   6    -1.1437E-03 -2.2972E-03  2.8948E-03  0.0000E+00 -3.0023E-07 -6.1204E-07
   7     1.1885E-03  2.8948E-03 -2.5200E-03  0.0000E+00  3.4668E-07  7.6687E-07 -8.3341E-07
   8     0.0000E+00  0.0000E+00  0.0000E+00  4.8838E-04  0.0000E+00  0.0000E+00  0.0000E+00  5.2094E-08

 OVERLAP MATRIX - CELL N.  27(  2 -1  0)

              1           2           3           4           5           6           7           8
   1     3.6930E-04
   2     6.5059E-04 -1.0859E-03
   3    -7.5124E-04  1.5103E-03 -1.5219E-03
   4     0.0000E+00  0.0000E+00  0.0000E+00  2.2208E-04
   5     9.2575E-07 -8.8853E-07  1.0993E-06  0.0000E+00  1.4446E-07
   6     1.5447E-06 -1.5524E-06  2.1159E-06  0.0000E+00  3.0023E-07 -6.1204E-07
   7    -1.9111E-06  2.1159E-06 -2.4599E-06  0.0000E+00 -3.4668E-07  7.6687E-07 -8.3341E-07
   8     0.0000E+00  0.0000E+00  0.0000E+00  1.5787E-07  0.0000E+00  0.0000E+00  0.0000E+00  5.2094E-08

 OVERLAP MATRIX - CELL N.  28( -1 -3  0)

              1           2           3           4           5           6           7           8
   1     3.6930E-04
   2    -3.2530E-04 -1.0492E-04
   3    -9.3905E-04 -9.4396E-04 -2.5029E-03
   4     0.0000E+00  0.0000E+00  0.0000E+00  2.2208E-04
   5     2.8012E-06  9.3740E-07  4.8709E-06  0.0000E+00  1.4446E-07
   6    -1.3503E-06  6.8106E-08 -2.7398E-06  0.0000E+00 -1.5012E-07 -1.1394E-07
   7    -7.0164E-06 -2.7398E-06 -1.3641E-05  0.0000E+00 -4.3335E-07 -4.7929E-07 -1.3315E-06
   8     0.0000E+00  0.0000E+00  0.0000E+00  5.9538E-07  0.0000E+00  0.0000E+00  0.0000E+00  5.2094E-08

 OVERLAP MATRIX - CELL N.  29(  1  3  0)

              1           2           3           4           5           6           7           8
   1     3.6930E-04
   2     3.2530E-04 -1.0492E-04
   3     9.3905E-04 -9.4396E-04 -2.5029E-03
   4     0.0000E+00  0.0000E+00  0.0000E+00  2.2208E-04
   5     2.6566E-04 -3.8358E-04 -6.6439E-04  0.0000E+00  1.4446E-07
   6     2.6768E-04 -3.2672E-04 -7.8307E-04  0.0000E+00  1.5012E-07 -1.1394E-07
   7     4.6364E-04 -7.8307E-04 -1.2309E-03  0.0000E+00  4.3335E-07 -4.7929E-07 -1.3315E-06
   8     0.0000E+00  0.0000E+00  0.0000E+00  1.2538E-04  0.0000E+00  0.0000E+00  0.0000E+00  5.2094E-08

 OVERLAP MATRIX - CELL N.  30( -1  2  0)

              1           2           3           4           5           6           7           8
   1     3.6930E-04
   2    -3.2530E-04 -1.0492E-04
   3     9.3905E-04  9.4396E-04 -2.5029E-03
   4     0.0000E+00  0.0000E+00  0.0000E+00  2.2208E-04
   5     8.8251E-04  7.5648E-04 -2.6205E-03  0.0000E+00  1.4446E-07
   6    -4.5747E-04  4.2693E-05  1.5439E-03  0.0000E+00 -1.5012E-07 -1.1394E-07
   7     1.5847E-03  1.5439E-03 -4.8599E-03  0.0000E+00  4.3335E-07  4.7929E-07 -1.3315E-06
   8     0.0000E+00  0.0000E+00  0.0000E+00  4.8838E-04  0.0000E+00  0.0000E+00  0.0000E+00  5.2094E-08

 OVERLAP MATRIX - CELL N.  31(  1 -2  0)

              1           2           3           4           5           6           7           8
   1     3.6930E-04
   2     3.2530E-04 -1.0492E-04
   3    -9.3905E-04  9.4396E-04 -2.5029E-03
   4     0.0000E+00  0.0000E+00  0.0000E+00  2.2208E-04
   5     9.2575E-07 -5.0773E-07  1.3191E-06  0.0000E+00  1.4446E-07
   6     8.8269E-07 -4.0059E-07  1.4509E-06  0.0000E+00  1.5012E-07 -1.1394E-07
   7    -2.2933E-06  1.4509E-06 -3.6117E-06  0.0000E+00 -4.3335E-07  4.7929E-07 -1.3315E-06
   8     0.0000E+00  0.0000E+00  0.0000E+00  1.5787E-07  0.0000E+00  0.0000E+00  0.0000E+00  5.2094E-08

 OVERLAP MATRIX - CELL N.  32( -3 -3  0)

              1           2           3           4           5           6           7           8
   1     6.6757E-05
   2    -1.5666E-04 -3.8231E-04
   3    -9.0449E-05 -2.3902E-04 -1.0631E-04
   4     0.0000E+00  0.0000E+00  0.0000E+00  3.1691E-05
   5     2.8012E-06  3.7496E-06  3.2473E-06  0.0000E+00  0.0000E+00
   6    -5.4012E-06 -7.8410E-06 -7.3061E-06  0.0000E+00  0.0000E+00  0.0000E+00
   7    -4.6776E-06 -7.3061E-06 -5.7319E-06  0.0000E+00  0.0000E+00  0.0000E+00  0.0000E+00
   8     0.0000E+00  0.0000E+00  0.0000E+00  5.9538E-07  0.0000E+00  0.0000E+00  0.0000E+00  0.0000E+00

 OVERLAP MATRIX - CELL N.  33(  3  3  0)

              1           2           3           4           5           6           7           8
   1     6.6757E-05
   2     1.5666E-04 -3.8231E-04
   3     9.0449E-05 -2.3902E-04 -1.0631E-04
   4     0.0000E+00  0.0000E+00  0.0000E+00  3.1691E-05
   5     2.8012E-06 -4.6870E-06 -1.6236E-06  0.0000E+00  0.0000E+00
   6     6.7515E-06 -1.2587E-05 -4.5663E-06  0.0000E+00  0.0000E+00  0.0000E+00
   7     2.3388E-06 -4.5663E-06 -9.8644E-07  0.0000E+00  0.0000E+00  0.0000E+00  0.0000E+00
   8     0.0000E+00  0.0000E+00  0.0000E+00  5.9538E-07  0.0000E+00  0.0000E+00  0.0000E+00  0.0000E+00

 OVERLAP MATRIX - CELL N.  34( -3  0  0)

              1           2           3           4           5           6           7           8
   1     6.6757E-05
   2    -1.5666E-04 -3.8231E-04
   3     9.0449E-05  2.3902E-04 -1.0631E-04
   4     0.0000E+00  0.0000E+00  0.0000E+00  3.1691E-05
   5     8.2815E-05  1.9874E-04 -8.6056E-05  0.0000E+00  0.0000E+00
   6    -1.6422E-04 -4.3425E-04  2.0215E-04  0.0000E+00  0.0000E+00  0.0000E+00
   7     7.1109E-05  2.0215E-04 -5.4928E-05  0.0000E+00  0.0000E+00  0.0000E+00  0.0000E+00
   8     0.0000E+00  0.0000E+00  0.0000E+00  3.2607E-05  0.0000E+00  0.0000E+00  0.0000E+00  0.0000E+00

 OVERLAP MATRIX - CELL N.  35(  3  0  0)

              1           2           3           4           5           6           7           8
   1     6.6757E-05
   2     1.5666E-04 -3.8231E-04
   3    -9.0449E-05  2.3902E-04 -1.0631E-04
   4     0.0000E+00  0.0000E+00  0.0000E+00  3.1691E-05
   5     1.0255E-07 -9.0050E-08  6.2389E-08  0.0000E+00  0.0000E+00
   6     2.3798E-07  0.0000E+00  0.0000E+00  0.0000E+00  0.0000E+00  0.0000E+00
   7    -1.6488E-07  0.0000E+00  0.0000E+00  0.0000E+00  0.0000E+00  0.0000E+00  0.0000E+00
   8     0.0000E+00  0.0000E+00  0.0000E+00  0.0000E+00  0.0000E+00  0.0000E+00  0.0000E+00  0.0000E+00

 OVERLAP MATRIX - CELL N.  36(  0 -3  0)

              1           2           3           4           5           6           7           8
   1     6.6757E-05
   2     0.0000E+00  3.1691E-05
   3    -1.8090E-04  3.3881E-20 -5.2030E-04
   4     0.0000E+00  0.0000E+00  0.0000E+00  3.1691E-05
   5     1.0255E-07 -9.0050E-09  1.0918E-07  0.0000E+00  0.0000E+00
   6     2.3798E-08  0.0000E+00  0.0000E+00  0.0000E+00  0.0000E+00  0.0000E+00
   7    -2.8854E-07  0.0000E+00  0.0000E+00  0.0000E+00  0.0000E+00  0.0000E+00  0.0000E+00
   8     0.0000E+00  0.0000E+00  0.0000E+00  0.0000E+00  0.0000E+00  0.0000E+00  0.0000E+00  0.0000E+00

 OVERLAP MATRIX - CELL N.  37(  0  3  0)

              1           2           3           4           5           6           7           8
   1     6.6757E-05
   2     0.0000E+00  3.1691E-05
   3     1.8090E-04  3.3881E-20 -5.2030E-04
   4     0.0000E+00  0.0000E+00  0.0000E+00  3.1691E-05
   5     8.2815E-05 -2.4842E-05 -2.1514E-04  0.0000E+00  0.0000E+00
   6     2.0527E-05  2.5313E-05 -6.3173E-05  0.0000E+00  0.0000E+00  0.0000E+00
   7     1.7777E-04 -6.3173E-05 -5.1449E-04  0.0000E+00  0.0000E+00  0.0000E+00  0.0000E+00
   8     0.0000E+00  0.0000E+00  0.0000E+00  3.2607E-05  0.0000E+00  0.0000E+00  0.0000E+00  0.0000E+00

 OVERLAP MATRIX - CELL N.  38( -4 -2  0)

              1           2           3           4           5           6           7           8
   1     5.8748E-06
   2    -1.5149E-05 -3.8824E-05
   3     0.0000E+00  0.0000E+00  1.7587E-06
   4     0.0000E+00  0.0000E+00  0.0000E+00  1.7587E-06
   5     9.2575E-07  1.3963E-06  2.1986E-07  0.0000E+00  0.0000E+00
   6    -2.4274E-06 -4.0655E-06 -6.6501E-07  0.0000E+00  0.0000E+00  0.0000E+00
   7    -3.8222E-07 -6.6501E-07  5.3160E-08  0.0000E+00  0.0000E+00  0.0000E+00  0.0000E+00
   8     0.0000E+00  0.0000E+00  0.0000E+00  1.5787E-07  0.0000E+00  0.0000E+00  0.0000E+00  0.0000E+00

 OVERLAP MATRIX - CELL N.  39(  4  2  0)

              1           2           3           4           5           6           7           8
   1     5.8748E-06
   2     1.5149E-05 -3.8824E-05
   3     0.0000E+00  0.0000E+00  1.7587E-06
   4     0.0000E+00  0.0000E+00  0.0000E+00  1.7587E-06
   5     1.0744E-08  0.0000E+00  0.0000E+00  0.0000E+00  0.0000E+00
   6     3.3332E-08  0.0000E+00  0.0000E+00  0.0000E+00  0.0000E+00  0.0000E+00
   7    -4.4410E-09  0.0000E+00  0.0000E+00  0.0000E+00  0.0000E+00  0.0000E+00  0.0000E+00
   8     0.0000E+00  0.0000E+00  0.0000E+00  0.0000E+00  0.0000E+00  0.0000E+00  0.0000E+00  0.0000E+00

 OVERLAP MATRIX - CELL N.  40( -2 -4  0)

              1           2           3           4           5           6           7           8
   1     5.8748E-06
   2    -7.5746E-06 -8.3870E-06
   3    -1.3120E-05 -1.7573E-05 -2.8678E-05
   4     0.0000E+00  0.0000E+00  0.0000E+00  1.7587E-06
   5     1.0744E-08  0.0000E+00  0.0000E+00  0.0000E+00  0.0000E+00
   6    -1.2820E-08  0.0000E+00  0.0000E+00  0.0000E+00  0.0000E+00  0.0000E+00
   7    -3.1087E-08  0.0000E+00  0.0000E+00  0.0000E+00  0.0000E+00  0.0000E+00  0.0000E+00
   8     0.0000E+00  0.0000E+00  0.0000E+00  0.0000E+00  0.0000E+00  0.0000E+00  0.0000E+00  0.0000E+00

 OVERLAP MATRIX - CELL N.  41(  2  4  0)

              1           2           3           4           5           6           7           8
   1     5.8748E-06
   2     7.5746E-06 -8.3870E-06
   3     1.3120E-05 -1.7573E-05 -2.8678E-05
   4     0.0000E+00  0.0000E+00  0.0000E+00  1.7587E-06
   5     9.2575E-07 -8.8853E-07 -1.0993E-06  0.0000E+00  0.0000E+00
   6     1.5447E-06 -1.5524E-06 -2.1159E-06  0.0000E+00  0.0000E+00  0.0000E+00
   7     1.9111E-06 -2.1159E-06 -2.4599E-06  0.0000E+00  0.0000E+00  0.0000E+00  0.0000E+00
   8     0.0000E+00  0.0000E+00  0.0000E+00  1.5787E-07  0.0000E+00  0.0000E+00  0.0000E+00  0.0000E+00

 OVERLAP MATRIX - CELL N.  42( -2  2  0)

              1           2           3           4           5           6           7           8
   1     5.8748E-06
   2    -7.5746E-06 -8.3870E-06
   3     1.3120E-05  1.7573E-05 -2.8678E-05
   4     0.0000E+00  0.0000E+00  0.0000E+00  1.7587E-06
   5     8.5532E-06  8.7150E-06 -1.5095E-05  0.0000E+00  0.0000E+00
   6    -1.0400E-05 -1.0244E-05  2.1645E-05  0.0000E+00  0.0000E+00  0.0000E+00
   7     1.8013E-05  2.1645E-05 -3.5237E-05  0.0000E+00  0.0000E+00  0.0000E+00  0.0000E+00
   8     0.0000E+00  0.0000E+00  0.0000E+00  2.2524E-06  0.0000E+00  0.0000E+00  0.0000E+00  0.0000E+00

 OVERLAP MATRIX - CELL N.  43(  2 -2  0)

              1           2           3           4           5           6           7           8
   1     5.8748E-06
   2     7.5746E-06 -8.3870E-06
   3    -1.3120E-05  1.7573E-05 -2.8678E-05
   4     0.0000E+00  0.0000E+00  0.0000E+00  1.7587E-06
   5     0.0000E+00  0.0000E+00  0.0000E+00  0.0000E+00  0.0000E+00
   6     0.0000E+00  0.0000E+00  0.0000E+00  0.0000E+00  0.0000E+00  0.0000E+00
   7     0.0000E+00  0.0000E+00  0.0000E+00  0.0000E+00  0.0000E+00  0.0000E+00  0.0000E+00
   8     0.0000E+00  0.0000E+00  0.0000E+00  0.0000E+00  0.0000E+00  0.0000E+00  0.0000E+00  0.0000E+00

 OVERLAP MATRIX - CELL N.  44( -4 -3  0)

              1           2           3           4           5           6           7           8
   1     2.6759E-06
   2    -6.4245E-06 -1.4794E-05
   3    -1.8546E-06 -4.4645E-06 -6.1743E-07
   4     0.0000E+00  0.0000E+00  0.0000E+00  6.7136E-07
   5     1.0255E-07  9.9055E-08  4.6791E-08  0.0000E+00  0.0000E+00
   6    -2.6178E-07  0.0000E+00  0.0000E+00  0.0000E+00  0.0000E+00  0.0000E+00
   7    -1.2366E-07  0.0000E+00  0.0000E+00  0.0000E+00  0.0000E+00  0.0000E+00  0.0000E+00
   8     0.0000E+00  0.0000E+00  0.0000E+00  0.0000E+00  0.0000E+00  0.0000E+00  0.0000E+00  0.0000E+00

 OVERLAP MATRIX - CELL N.  45(  4  3  0)

              1           2           3           4           5           6           7           8
   1     2.6759E-06
   2     6.4245E-06 -1.4794E-05
   3     1.8546E-06 -4.4645E-06 -6.1743E-07
   4     0.0000E+00  0.0000E+00  0.0000E+00  6.7136E-07
   5     1.0744E-08  0.0000E+00  0.0000E+00  0.0000E+00  0.0000E+00
   6     3.3332E-08  0.0000E+00  0.0000E+00  0.0000E+00  0.0000E+00  0.0000E+00
   7     4.4410E-09  0.0000E+00  0.0000E+00  0.0000E+00  0.0000E+00  0.0000E+00  0.0000E+00
   8     0.0000E+00  0.0000E+00  0.0000E+00  0.0000E+00  0.0000E+00  0.0000E+00  0.0000E+00  0.0000E+00

 OVERLAP MATRIX - CELL N.  46( -4 -1  0)

              1           2           3           4           5           6           7           8
   1     2.6759E-06
   2    -6.4245E-06 -1.4794E-05
   3     1.8546E-06  4.4645E-06 -6.1743E-07
   4     0.0000E+00  0.0000E+00  0.0000E+00  6.7136E-07
   5     9.2575E-07  1.3963E-06 -2.1986E-07  0.0000E+00  0.0000E+00
   6    -2.4274E-06 -4.0655E-06  6.6501E-07  0.0000E+00  0.0000E+00  0.0000E+00
   7     3.8222E-07  6.6501E-07  5.3160E-08  0.0000E+00  0.0000E+00  0.0000E+00  0.0000E+00
   8     0.0000E+00  0.0000E+00  0.0000E+00  1.5787E-07  0.0000E+00  0.0000E+00  0.0000E+00  0.0000E+00

 OVERLAP MATRIX - CELL N.  47(  4  1  0)

              1           2           3           4           5           6           7           8
   1     2.6759E-06
   2     6.4245E-06 -1.4794E-05
   3    -1.8546E-06  4.4645E-06 -6.1743E-07
   4     0.0000E+00  0.0000E+00  0.0000E+00  6.7136E-07
   5     0.0000E+00  0.0000E+00  0.0000E+00  0.0000E+00  0.0000E+00
   6     0.0000E+00  0.0000E+00  0.0000E+00  0.0000E+00  0.0000E+00  0.0000E+00
   7     0.0000E+00  0.0000E+00  0.0000E+00  0.0000E+00  0.0000E+00  0.0000E+00  0.0000E+00
   8     0.0000E+00  0.0000E+00  0.0000E+00  0.0000E+00  0.0000E+00  0.0000E+00  0.0000E+00  0.0000E+00

 OVERLAP MATRIX - CELL N.  48( -3 -4  0)

              1           2           3           4           5           6           7           8
   1     2.6759E-06
   2    -4.8184E-06 -8.0279E-06
   3    -4.6365E-06 -8.3709E-06 -7.3835E-06
   4     0.0000E+00  0.0000E+00  0.0000E+00  6.7136E-07
   5     1.0744E-08  0.0000E+00  0.0000E+00  0.0000E+00  0.0000E+00
   6    -2.0512E-08  0.0000E+00  0.0000E+00  0.0000E+00  0.0000E+00  0.0000E+00
   7    -2.6646E-08  0.0000E+00  0.0000E+00  0.0000E+00  0.0000E+00  0.0000E+00  0.0000E+00
   8     0.0000E+00  0.0000E+00  0.0000E+00  0.0000E+00  0.0000E+00  0.0000E+00  0.0000E+00  0.0000E+00

 OVERLAP MATRIX - CELL N.  49(  3  4  0)

              1           2           3           4           5           6           7           8
   1     2.6759E-06
   2     4.8184E-06 -8.0279E-06
   3     4.6365E-06 -8.3709E-06 -7.3835E-06
   4     0.0000E+00  0.0000E+00  0.0000E+00  6.7136E-07
   5     1.0255E-07 -9.0050E-08 -6.2389E-08  0.0000E+00  0.0000E+00
   6     2.3798E-07  0.0000E+00  0.0000E+00  0.0000E+00  0.0000E+00  0.0000E+00
   7     1.6488E-07  0.0000E+00  0.0000E+00  0.0000E+00  0.0000E+00  0.0000E+00  0.0000E+00
   8     0.0000E+00  0.0000E+00  0.0000E+00  0.0000E+00  0.0000E+00  0.0000E+00  0.0000E+00  0.0000E+00

 OVERLAP MATRIX - CELL N.  50( -3  1  0)

              1           2           3           4           5           6           7           8
   1     2.6759E-06
   2    -4.8184E-06 -8.0279E-06
   3     4.6365E-06  8.3709E-06 -7.3835E-06
   4     0.0000E+00  0.0000E+00  0.0000E+00  6.7136E-07
   5     2.8012E-06  3.7496E-06 -3.2473E-06  0.0000E+00  0.0000E+00
   6    -5.4012E-06 -7.8410E-06  7.3061E-06  0.0000E+00  0.0000E+00  0.0000E+00
   7     4.6776E-06  7.3061E-06 -5.7319E-06  0.0000E+00  0.0000E+00  0.0000E+00  0.0000E+00
   8     0.0000E+00  0.0000E+00  0.0000E+00  5.9538E-07  0.0000E+00  0.0000E+00  0.0000E+00  0.0000E+00

 OVERLAP MATRIX - CELL N.  51(  3 -1  0)

              1           2           3           4           5           6           7           8
   1     2.6759E-06
   2     4.8184E-06 -8.0279E-06
   3    -4.6365E-06  8.3709E-06 -7.3835E-06
   4     0.0000E+00  0.0000E+00  0.0000E+00  6.7136E-07
   5     0.0000E+00  0.0000E+00  0.0000E+00  0.0000E+00  0.0000E+00
   6     0.0000E+00  0.0000E+00  0.0000E+00  0.0000E+00  0.0000E+00  0.0000E+00
   7     0.0000E+00  0.0000E+00  0.0000E+00  0.0000E+00  0.0000E+00  0.0000E+00  0.0000E+00
   8     0.0000E+00  0.0000E+00  0.0000E+00  0.0000E+00  0.0000E+00  0.0000E+00  0.0000E+00  0.0000E+00

 OVERLAP MATRIX - CELL N.  52( -1 -4  0)

              1           2           3           4           5           6           7           8
   1     2.6759E-06
   2    -1.6061E-06 -2.9523E-07
   3    -6.4911E-06 -3.9064E-06 -1.5116E-05
   4     0.0000E+00  0.0000E+00  0.0000E+00  6.7136E-07
   5     0.0000E+00  0.0000E+00  0.0000E+00  0.0000E+00  0.0000E+00
   6     0.0000E+00  0.0000E+00  0.0000E+00  0.0000E+00  0.0000E+00  0.0000E+00
   7     0.0000E+00  0.0000E+00  0.0000E+00  0.0000E+00  0.0000E+00  0.0000E+00  0.0000E+00
   8     0.0000E+00  0.0000E+00  0.0000E+00  0.0000E+00  0.0000E+00  0.0000E+00  0.0000E+00  0.0000E+00

 OVERLAP MATRIX - CELL N.  53(  1  4  0)

              1           2           3           4           5           6           7           8
   1     2.6759E-06
   2     1.6061E-06 -2.9523E-07
   3     6.4911E-06 -3.9064E-06 -1.5116E-05
   4     0.0000E+00  0.0000E+00  0.0000E+00  6.7136E-07
   5     9.2575E-07 -5.0773E-07 -1.3191E-06  0.0000E+00  0.0000E+00
   6     8.8269E-07 -4.0059E-07 -1.4509E-06  0.0000E+00  0.0000E+00  0.0000E+00
   7     2.2933E-06 -1.4509E-06 -3.6117E-06  0.0000E+00  0.0000E+00  0.0000E+00  0.0000E+00
   8     0.0000E+00  0.0000E+00  0.0000E+00  1.5787E-07  0.0000E+00  0.0000E+00  0.0000E+00  0.0000E+00

 OVERLAP MATRIX - CELL N.  54( -1  3  0)

              1           2           3           4           5           6           7           8
   1     2.6759E-06
   2    -1.6061E-06 -2.9523E-07
   3     6.4911E-06  3.9064E-06 -1.5116E-05
   4     0.0000E+00  0.0000E+00  0.0000E+00  6.7136E-07
   5     2.8012E-06  9.3740E-07 -4.8709E-06  0.0000E+00  0.0000E+00
   6    -1.3503E-06  6.8106E-08  2.7398E-06  0.0000E+00  0.0000E+00  0.0000E+00
   7     7.0164E-06  2.7398E-06 -1.3641E-05  0.0000E+00  0.0000E+00  0.0000E+00  0.0000E+00
   8     0.0000E+00  0.0000E+00  0.0000E+00  5.9538E-07  0.0000E+00  0.0000E+00  0.0000E+00  0.0000E+00

 OVERLAP MATRIX - CELL N.  55(  1 -3  0)

              1           2           3           4           5           6           7           8
   1     2.6759E-06
   2     1.6061E-06 -2.9523E-07
   3    -6.4911E-06  3.9064E-06 -1.5116E-05
   4     0.0000E+00  0.0000E+00  0.0000E+00  6.7136E-07
   5     0.0000E+00  0.0000E+00  0.0000E+00  0.0000E+00  0.0000E+00
   6     0.0000E+00  0.0000E+00  0.0000E+00  0.0000E+00  0.0000E+00  0.0000E+00
   7     0.0000E+00  0.0000E+00  0.0000E+00  0.0000E+00  0.0000E+00  0.0000E+00  0.0000E+00
   8     0.0000E+00  0.0000E+00  0.0000E+00  0.0000E+00  0.0000E+00  0.0000E+00  0.0000E+00  0.0000E+00

 OVERLAP MATRIX - CELL N.  56( -4 -4  0)

              1           2           3           4           5           6           7           8
   1     2.6416E-07
   2    -5.0303E-07 -8.3087E-07
   3    -2.9043E-07 -5.0147E-07 -2.5182E-07
   4     0.0000E+00  0.0000E+00  0.0000E+00  3.7705E-08
   5     0.0000E+00  0.0000E+00  0.0000E+00  0.0000E+00  0.0000E+00
   6     0.0000E+00  0.0000E+00  0.0000E+00  0.0000E+00  0.0000E+00  0.0000E+00
   7     0.0000E+00  0.0000E+00  0.0000E+00  0.0000E+00  0.0000E+00  0.0000E+00  0.0000E+00
   8     0.0000E+00  0.0000E+00  0.0000E+00  0.0000E+00  0.0000E+00  0.0000E+00  0.0000E+00  0.0000E+00

 OVERLAP MATRIX - CELL N.  57(  4  4  0)

              1           2           3           4           5           6           7           8
   1     2.6416E-07
   2     5.0303E-07 -8.3087E-07
   3     2.9043E-07 -5.0147E-07 -2.5182E-07
   4     0.0000E+00  0.0000E+00  0.0000E+00  3.7705E-08
   5     0.0000E+00  0.0000E+00  0.0000E+00  0.0000E+00  0.0000E+00
   6     0.0000E+00  0.0000E+00  0.0000E+00  0.0000E+00  0.0000E+00  0.0000E+00
   7     0.0000E+00  0.0000E+00  0.0000E+00  0.0000E+00  0.0000E+00  0.0000E+00  0.0000E+00
   8     0.0000E+00  0.0000E+00  0.0000E+00  0.0000E+00  0.0000E+00  0.0000E+00  0.0000E+00  0.0000E+00

 OVERLAP MATRIX - CELL N.  58( -4  0  0)

              1           2           3           4           5           6           7           8
   1     2.6416E-07
   2    -5.0303E-07 -8.3087E-07
   3     2.9043E-07  5.0147E-07 -2.5182E-07
   4     0.0000E+00  0.0000E+00  0.0000E+00  3.7705E-08
   5     1.0255E-07  9.9055E-08 -4.6791E-08  0.0000E+00  0.0000E+00
   6    -2.6178E-07  0.0000E+00  0.0000E+00  0.0000E+00  0.0000E+00  0.0000E+00
   7     1.2366E-07  0.0000E+00  0.0000E+00  0.0000E+00  0.0000E+00  0.0000E+00  0.0000E+00
   8     0.0000E+00  0.0000E+00  0.0000E+00  0.0000E+00  0.0000E+00  0.0000E+00  0.0000E+00  0.0000E+00

 OVERLAP MATRIX - CELL N.  59(  4  0  0)

              1           2           3           4           5           6           7           8
   1     2.6416E-07
   2     5.0303E-07 -8.3087E-07
   3    -2.9043E-07  5.0147E-07 -2.5182E-07
   4     0.0000E+00  0.0000E+00  0.0000E+00  3.7705E-08
   5     0.0000E+00  0.0000E+00  0.0000E+00  0.0000E+00  0.0000E+00
   6     0.0000E+00  0.0000E+00  0.0000E+00  0.0000E+00  0.0000E+00  0.0000E+00
   7     0.0000E+00  0.0000E+00  0.0000E+00  0.0000E+00  0.0000E+00  0.0000E+00  0.0000E+00
   8     0.0000E+00  0.0000E+00  0.0000E+00  0.0000E+00  0.0000E+00  0.0000E+00  0.0000E+00  0.0000E+00

 OVERLAP MATRIX - CELL N.  60(  0 -4  0)

              1           2           3           4           5           6           7           8
   1     2.6416E-07
   2     0.0000E+00  3.7705E-08
   3    -5.8085E-07  6.6174E-23 -1.1204E-06
   4     0.0000E+00  0.0000E+00  0.0000E+00  3.7705E-08
   5     0.0000E+00  0.0000E+00  0.0000E+00  0.0000E+00  0.0000E+00
   6     0.0000E+00  0.0000E+00  0.0000E+00  0.0000E+00  0.0000E+00  0.0000E+00
   7     0.0000E+00  0.0000E+00  0.0000E+00  0.0000E+00  0.0000E+00  0.0000E+00  0.0000E+00
   8     0.0000E+00  0.0000E+00  0.0000E+00  0.0000E+00  0.0000E+00  0.0000E+00  0.0000E+00  0.0000E+00

 OVERLAP MATRIX - CELL N.  61(  0  4  0)

              1           2           3           4           5           6           7           8
   1     2.6416E-07
   2     0.0000E+00  3.7705E-08
   3     5.8085E-07  6.6174E-23 -1.1204E-06
   4     0.0000E+00  0.0000E+00  0.0000E+00  3.7705E-08
   5     1.0255E-07 -9.0050E-09 -1.0918E-07  0.0000E+00  0.0000E+00
   6     2.3798E-08  0.0000E+00  0.0000E+00  0.0000E+00  0.0000E+00  0.0000E+00
   7     2.8854E-07  0.0000E+00  0.0000E+00  0.0000E+00  0.0000E+00  0.0000E+00  0.0000E+00
   8     0.0000E+00  0.0000E+00  0.0000E+00  0.0000E+00  0.0000E+00  0.0000E+00  0.0000E+00  0.0000E+00

 OVERLAP MATRIX - CELL N.  62( -5 -3  0)

              1           2           3           4           5           6           7           8
   1     2.6227E-08
   2    -4.9961E-08  0.0000E+00
   3    -5.7689E-09  0.0000E+00  0.0000E+00
   4     0.0000E+00  0.0000E+00  0.0000E+00  0.0000E+00
   5     0.0000E+00  0.0000E+00  0.0000E+00  0.0000E+00  0.0000E+00
   6     0.0000E+00  0.0000E+00  0.0000E+00  0.0000E+00  0.0000E+00  0.0000E+00
   7     0.0000E+00  0.0000E+00  0.0000E+00  0.0000E+00  0.0000E+00  0.0000E+00  0.0000E+00
   8     0.0000E+00  0.0000E+00  0.0000E+00  0.0000E+00  0.0000E+00  0.0000E+00  0.0000E+00  0.0000E+00

 OVERLAP MATRIX - CELL N.  63(  5  3  0)

              1           2           3           4           5           6           7           8
   1     2.6227E-08
   2     4.9961E-08  0.0000E+00
   3     5.7689E-09  0.0000E+00  0.0000E+00
   4     0.0000E+00  0.0000E+00  0.0000E+00  0.0000E+00
   5     0.0000E+00  0.0000E+00  0.0000E+00  0.0000E+00  0.0000E+00
   6     0.0000E+00  0.0000E+00  0.0000E+00  0.0000E+00  0.0000E+00  0.0000E+00
   7     0.0000E+00  0.0000E+00  0.0000E+00  0.0000E+00  0.0000E+00  0.0000E+00  0.0000E+00
   8     0.0000E+00  0.0000E+00  0.0000E+00  0.0000E+00  0.0000E+00  0.0000E+00  0.0000E+00  0.0000E+00

 OVERLAP MATRIX - CELL N.  64( -5 -2  0)

              1           2           3           4           5           6           7           8
   1     2.6227E-08
   2    -4.9961E-08  0.0000E+00
   3     5.7689E-09  0.0000E+00  0.0000E+00
   4     0.0000E+00  0.0000E+00  0.0000E+00  0.0000E+00
   5     0.0000E+00  0.0000E+00  0.0000E+00  0.0000E+00  0.0000E+00
   6     0.0000E+00  0.0000E+00  0.0000E+00  0.0000E+00  0.0000E+00  0.0000E+00
   7     0.0000E+00  0.0000E+00  0.0000E+00  0.0000E+00  0.0000E+00  0.0000E+00  0.0000E+00
   8     0.0000E+00  0.0000E+00  0.0000E+00  0.0000E+00  0.0000E+00  0.0000E+00  0.0000E+00  0.0000E+00

 OVERLAP MATRIX - CELL N.  65(  5  2  0)

              1           2           3           4           5           6           7           8
   1     2.6227E-08
   2     4.9961E-08  0.0000E+00
   3    -5.7689E-09  0.0000E+00  0.0000E+00
   4     0.0000E+00  0.0000E+00  0.0000E+00  0.0000E+00
   5     0.0000E+00  0.0000E+00  0.0000E+00  0.0000E+00  0.0000E+00
   6     0.0000E+00  0.0000E+00  0.0000E+00  0.0000E+00  0.0000E+00  0.0000E+00
   7     0.0000E+00  0.0000E+00  0.0000E+00  0.0000E+00  0.0000E+00  0.0000E+00  0.0000E+00
   8     0.0000E+00  0.0000E+00  0.0000E+00  0.0000E+00  0.0000E+00  0.0000E+00  0.0000E+00  0.0000E+00

 OVERLAP MATRIX - CELL N.  66( -3 -5  0)

              1           2           3           4           5           6           7           8
   1     2.6227E-08
   2    -2.9976E-08  0.0000E+00
   3    -4.0383E-08  0.0000E+00  0.0000E+00
   4     0.0000E+00  0.0000E+00  0.0000E+00  0.0000E+00
   5     0.0000E+00  0.0000E+00  0.0000E+00  0.0000E+00  0.0000E+00
   6     0.0000E+00  0.0000E+00  0.0000E+00  0.0000E+00  0.0000E+00  0.0000E+00
   7     0.0000E+00  0.0000E+00  0.0000E+00  0.0000E+00  0.0000E+00  0.0000E+00  0.0000E+00
   8     0.0000E+00  0.0000E+00  0.0000E+00  0.0000E+00  0.0000E+00  0.0000E+00  0.0000E+00  0.0000E+00

 OVERLAP MATRIX - CELL N.  67(  3  5  0)

              1           2           3           4           5           6           7           8
   1     2.6227E-08
   2     2.9976E-08  0.0000E+00
   3     4.0383E-08  0.0000E+00  0.0000E+00
   4     0.0000E+00  0.0000E+00  0.0000E+00  0.0000E+00
   5     0.0000E+00  0.0000E+00  0.0000E+00  0.0000E+00  0.0000E+00
   6     0.0000E+00  0.0000E+00  0.0000E+00  0.0000E+00  0.0000E+00  0.0000E+00
   7     0.0000E+00  0.0000E+00  0.0000E+00  0.0000E+00  0.0000E+00  0.0000E+00  0.0000E+00
   8     0.0000E+00  0.0000E+00  0.0000E+00  0.0000E+00  0.0000E+00  0.0000E+00  0.0000E+00  0.0000E+00

 OVERLAP MATRIX - CELL N.  68( -3  2  0)

              1           2           3           4           5           6           7           8
   1     2.6227E-08
   2    -2.9976E-08  0.0000E+00
   3     4.0383E-08  0.0000E+00  0.0000E+00
   4     0.0000E+00  0.0000E+00  0.0000E+00  0.0000E+00
   5     1.0744E-08  0.0000E+00  0.0000E+00  0.0000E+00  0.0000E+00
   6    -2.0512E-08  0.0000E+00  0.0000E+00  0.0000E+00  0.0000E+00  0.0000E+00
   7     2.6646E-08  0.0000E+00  0.0000E+00  0.0000E+00  0.0000E+00  0.0000E+00  0.0000E+00
   8     0.0000E+00  0.0000E+00  0.0000E+00  0.0000E+00  0.0000E+00  0.0000E+00  0.0000E+00  0.0000E+00

 OVERLAP MATRIX - CELL N.  69(  3 -2  0)

              1           2           3           4           5           6           7           8
   1     2.6227E-08
   2     2.9976E-08  0.0000E+00
   3    -4.0383E-08  0.0000E+00  0.0000E+00
   4     0.0000E+00  0.0000E+00  0.0000E+00  0.0000E+00
   5     0.0000E+00  0.0000E+00  0.0000E+00  0.0000E+00  0.0000E+00
   6     0.0000E+00  0.0000E+00  0.0000E+00  0.0000E+00  0.0000E+00  0.0000E+00
   7     0.0000E+00  0.0000E+00  0.0000E+00  0.0000E+00  0.0000E+00  0.0000E+00  0.0000E+00
   8     0.0000E+00  0.0000E+00  0.0000E+00  0.0000E+00  0.0000E+00  0.0000E+00  0.0000E+00  0.0000E+00

 OVERLAP MATRIX - CELL N.  70( -2 -5  0)

              1           2           3           4           5           6           7           8
   1     2.6227E-08
   2    -1.9984E-08  0.0000E+00
   3    -4.6152E-08  0.0000E+00  0.0000E+00
   4     0.0000E+00  0.0000E+00  0.0000E+00  0.0000E+00
   5     0.0000E+00  0.0000E+00  0.0000E+00  0.0000E+00  0.0000E+00
   6     0.0000E+00  0.0000E+00  0.0000E+00  0.0000E+00  0.0000E+00  0.0000E+00
   7     0.0000E+00  0.0000E+00  0.0000E+00  0.0000E+00  0.0000E+00  0.0000E+00  0.0000E+00
   8     0.0000E+00  0.0000E+00  0.0000E+00  0.0000E+00  0.0000E+00  0.0000E+00  0.0000E+00  0.0000E+00

 OVERLAP MATRIX - CELL N.  71(  2  5  0)

              1           2           3           4           5           6           7           8
   1     2.6227E-08
   2     1.9984E-08  0.0000E+00
   3     4.6152E-08  0.0000E+00  0.0000E+00
   4     0.0000E+00  0.0000E+00  0.0000E+00  0.0000E+00
   5     0.0000E+00  0.0000E+00  0.0000E+00  0.0000E+00  0.0000E+00
   6     0.0000E+00  0.0000E+00  0.0000E+00  0.0000E+00  0.0000E+00  0.0000E+00
   7     0.0000E+00  0.0000E+00  0.0000E+00  0.0000E+00  0.0000E+00  0.0000E+00  0.0000E+00
   8     0.0000E+00  0.0000E+00  0.0000E+00  0.0000E+00  0.0000E+00  0.0000E+00  0.0000E+00  0.0000E+00

 OVERLAP MATRIX - CELL N.  72( -2  3  0)

              1           2           3           4           5           6           7           8
   1     2.6227E-08
   2    -1.9984E-08  0.0000E+00
   3     4.6152E-08  0.0000E+00  0.0000E+00
   4     0.0000E+00  0.0000E+00  0.0000E+00  0.0000E+00
   5     1.0744E-08  0.0000E+00  0.0000E+00  0.0000E+00  0.0000E+00
   6    -1.2820E-08  0.0000E+00  0.0000E+00  0.0000E+00  0.0000E+00  0.0000E+00
   7     3.1087E-08  0.0000E+00  0.0000E+00  0.0000E+00  0.0000E+00  0.0000E+00  0.0000E+00
   8     0.0000E+00  0.0000E+00  0.0000E+00  0.0000E+00  0.0000E+00  0.0000E+00  0.0000E+00  0.0000E+00

 OVERLAP MATRIX - CELL N.  73(  2 -3  0)

              1           2           3           4           5           6           7           8
   1     2.6227E-08
   2     1.9984E-08  0.0000E+00
   3    -4.6152E-08  0.0000E+00  0.0000E+00
   4     0.0000E+00  0.0000E+00  0.0000E+00  0.0000E+00
   5     0.0000E+00  0.0000E+00  0.0000E+00  0.0000E+00  0.0000E+00
   6     0.0000E+00  0.0000E+00  0.0000E+00  0.0000E+00  0.0000E+00  0.0000E+00
   7     0.0000E+00  0.0000E+00  0.0000E+00  0.0000E+00  0.0000E+00  0.0000E+00  0.0000E+00
   8     0.0000E+00  0.0000E+00  0.0000E+00  0.0000E+00  0.0000E+00  0.0000E+00  0.0000E+00  0.0000E+00

 OVERLAP MATRIX - CELL N.  74( -5 -4  0)

              1           2           3           4           5           6           7           8
   1     5.9146E-09
   2     0.0000E+00  0.0000E+00
   3     0.0000E+00  0.0000E+00  0.0000E+00
   4     0.0000E+00  0.0000E+00  0.0000E+00  0.0000E+00
   5     0.0000E+00  0.0000E+00  0.0000E+00  0.0000E+00  0.0000E+00
   6     0.0000E+00  0.0000E+00  0.0000E+00  0.0000E+00  0.0000E+00  0.0000E+00
   7     0.0000E+00  0.0000E+00  0.0000E+00  0.0000E+00  0.0000E+00  0.0000E+00  0.0000E+00
   8     0.0000E+00  0.0000E+00  0.0000E+00  0.0000E+00  0.0000E+00  0.0000E+00  0.0000E+00  0.0000E+00

 OVERLAP MATRIX - CELL N.  75(  5  4  0)

              1           2           3           4           5           6           7           8
   1     5.9146E-09
   2     0.0000E+00  0.0000E+00
   3     0.0000E+00  0.0000E+00  0.0000E+00
   4     0.0000E+00  0.0000E+00  0.0000E+00  0.0000E+00
   5     0.0000E+00  0.0000E+00  0.0000E+00  0.0000E+00  0.0000E+00
   6     0.0000E+00  0.0000E+00  0.0000E+00  0.0000E+00  0.0000E+00  0.0000E+00
   7     0.0000E+00  0.0000E+00  0.0000E+00  0.0000E+00  0.0000E+00  0.0000E+00  0.0000E+00
   8     0.0000E+00  0.0000E+00  0.0000E+00  0.0000E+00  0.0000E+00  0.0000E+00  0.0000E+00  0.0000E+00

 OVERLAP MATRIX - CELL N.  76( -5 -1  0)

              1           2           3           4           5           6           7           8
   1     5.9146E-09
   2     0.0000E+00  0.0000E+00
   3     0.0000E+00  0.0000E+00  0.0000E+00
   4     0.0000E+00  0.0000E+00  0.0000E+00  0.0000E+00
   5     0.0000E+00  0.0000E+00  0.0000E+00  0.0000E+00  0.0000E+00
   6     0.0000E+00  0.0000E+00  0.0000E+00  0.0000E+00  0.0000E+00  0.0000E+00
   7     0.0000E+00  0.0000E+00  0.0000E+00  0.0000E+00  0.0000E+00  0.0000E+00  0.0000E+00
   8     0.0000E+00  0.0000E+00  0.0000E+00  0.0000E+00  0.0000E+00  0.0000E+00  0.0000E+00  0.0000E+00

 OVERLAP MATRIX - CELL N.  77(  5  1  0)

              1           2           3           4           5           6           7           8
   1     5.9146E-09
   2     0.0000E+00  0.0000E+00
   3     0.0000E+00  0.0000E+00  0.0000E+00
   4     0.0000E+00  0.0000E+00  0.0000E+00  0.0000E+00
   5     0.0000E+00  0.0000E+00  0.0000E+00  0.0000E+00  0.0000E+00
   6     0.0000E+00  0.0000E+00  0.0000E+00  0.0000E+00  0.0000E+00  0.0000E+00
   7     0.0000E+00  0.0000E+00  0.0000E+00  0.0000E+00  0.0000E+00  0.0000E+00  0.0000E+00
   8     0.0000E+00  0.0000E+00  0.0000E+00  0.0000E+00  0.0000E+00  0.0000E+00  0.0000E+00  0.0000E+00

 OVERLAP MATRIX - CELL N.  78( -4 -5  0)

              1           2           3           4           5           6           7           8
   1     5.9146E-09
   2     0.0000E+00  0.0000E+00
   3     0.0000E+00  0.0000E+00  0.0000E+00
   4     0.0000E+00  0.0000E+00  0.0000E+00  0.0000E+00
   5     0.0000E+00  0.0000E+00  0.0000E+00  0.0000E+00  0.0000E+00
   6     0.0000E+00  0.0000E+00  0.0000E+00  0.0000E+00  0.0000E+00  0.0000E+00
   7     0.0000E+00  0.0000E+00  0.0000E+00  0.0000E+00  0.0000E+00  0.0000E+00  0.0000E+00
   8     0.0000E+00  0.0000E+00  0.0000E+00  0.0000E+00  0.0000E+00  0.0000E+00  0.0000E+00  0.0000E+00

 OVERLAP MATRIX - CELL N.  79(  4  5  0)

              1           2           3           4           5           6           7           8
   1     5.9146E-09
   2     0.0000E+00  0.0000E+00
   3     0.0000E+00  0.0000E+00  0.0000E+00
   4     0.0000E+00  0.0000E+00  0.0000E+00  0.0000E+00
   5     0.0000E+00  0.0000E+00  0.0000E+00  0.0000E+00  0.0000E+00
   6     0.0000E+00  0.0000E+00  0.0000E+00  0.0000E+00  0.0000E+00  0.0000E+00
   7     0.0000E+00  0.0000E+00  0.0000E+00  0.0000E+00  0.0000E+00  0.0000E+00  0.0000E+00
   8     0.0000E+00  0.0000E+00  0.0000E+00  0.0000E+00  0.0000E+00  0.0000E+00  0.0000E+00  0.0000E+00

 OVERLAP MATRIX - CELL N.  80( -4  1  0)

              1           2           3           4           5           6           7           8
   1     5.9146E-09
   2     0.0000E+00  0.0000E+00
   3     0.0000E+00  0.0000E+00  0.0000E+00
   4     0.0000E+00  0.0000E+00  0.0000E+00  0.0000E+00
   5     0.0000E+00  0.0000E+00  0.0000E+00  0.0000E+00  0.0000E+00
   6     0.0000E+00  0.0000E+00  0.0000E+00  0.0000E+00  0.0000E+00  0.0000E+00
   7     0.0000E+00  0.0000E+00  0.0000E+00  0.0000E+00  0.0000E+00  0.0000E+00  0.0000E+00
   8     0.0000E+00  0.0000E+00  0.0000E+00  0.0000E+00  0.0000E+00  0.0000E+00  0.0000E+00  0.0000E+00

 OVERLAP MATRIX - CELL N.  81(  4 -1  0)

              1           2           3           4           5           6           7           8
   1     5.9146E-09
   2     0.0000E+00  0.0000E+00
   3     0.0000E+00  0.0000E+00  0.0000E+00
   4     0.0000E+00  0.0000E+00  0.0000E+00  0.0000E+00
   5     0.0000E+00  0.0000E+00  0.0000E+00  0.0000E+00  0.0000E+00
   6     0.0000E+00  0.0000E+00  0.0000E+00  0.0000E+00  0.0000E+00  0.0000E+00
   7     0.0000E+00  0.0000E+00  0.0000E+00  0.0000E+00  0.0000E+00  0.0000E+00  0.0000E+00
   8     0.0000E+00  0.0000E+00  0.0000E+00  0.0000E+00  0.0000E+00  0.0000E+00  0.0000E+00  0.0000E+00

 OVERLAP MATRIX - CELL N.  82( -1 -5  0)

              1           2           3           4           5           6           7           8
   1     5.9146E-09
   2     0.0000E+00  0.0000E+00
   3     0.0000E+00  0.0000E+00  0.0000E+00
   4     0.0000E+00  0.0000E+00  0.0000E+00  0.0000E+00
   5     0.0000E+00  0.0000E+00  0.0000E+00  0.0000E+00  0.0000E+00
   6     0.0000E+00  0.0000E+00  0.0000E+00  0.0000E+00  0.0000E+00  0.0000E+00
   7     0.0000E+00  0.0000E+00  0.0000E+00  0.0000E+00  0.0000E+00  0.0000E+00  0.0000E+00
   8     0.0000E+00  0.0000E+00  0.0000E+00  0.0000E+00  0.0000E+00  0.0000E+00  0.0000E+00  0.0000E+00

 OVERLAP MATRIX - CELL N.  83(  1  5  0)

              1           2           3           4           5           6           7           8
   1     5.9146E-09
   2     0.0000E+00  0.0000E+00
   3     0.0000E+00  0.0000E+00  0.0000E+00
   4     0.0000E+00  0.0000E+00  0.0000E+00  0.0000E+00
   5     0.0000E+00  0.0000E+00  0.0000E+00  0.0000E+00  0.0000E+00
   6     0.0000E+00  0.0000E+00  0.0000E+00  0.0000E+00  0.0000E+00  0.0000E+00
   7     0.0000E+00  0.0000E+00  0.0000E+00  0.0000E+00  0.0000E+00  0.0000E+00  0.0000E+00
   8     0.0000E+00  0.0000E+00  0.0000E+00  0.0000E+00  0.0000E+00  0.0000E+00  0.0000E+00  0.0000E+00

 OVERLAP MATRIX - CELL N.  84( -1  4  0)

              1           2           3           4           5           6           7           8
   1     5.9146E-09
   2     0.0000E+00  0.0000E+00
   3     0.0000E+00  0.0000E+00  0.0000E+00
   4     0.0000E+00  0.0000E+00  0.0000E+00  0.0000E+00
   5     0.0000E+00  0.0000E+00  0.0000E+00  0.0000E+00  0.0000E+00
   6     0.0000E+00  0.0000E+00  0.0000E+00  0.0000E+00  0.0000E+00  0.0000E+00
   7     0.0000E+00  0.0000E+00  0.0000E+00  0.0000E+00  0.0000E+00  0.0000E+00  0.0000E+00
   8     0.0000E+00  0.0000E+00  0.0000E+00  0.0000E+00  0.0000E+00  0.0000E+00  0.0000E+00  0.0000E+00

 OVERLAP MATRIX - CELL N.  85(  1 -4  0)

              1           2           3           4           5           6           7           8
   1     5.9146E-09
   2     0.0000E+00  0.0000E+00
   3     0.0000E+00  0.0000E+00  0.0000E+00
   4     0.0000E+00  0.0000E+00  0.0000E+00  0.0000E+00
   5     0.0000E+00  0.0000E+00  0.0000E+00  0.0000E+00  0.0000E+00
   6     0.0000E+00  0.0000E+00  0.0000E+00  0.0000E+00  0.0000E+00  0.0000E+00
   7     0.0000E+00  0.0000E+00  0.0000E+00  0.0000E+00  0.0000E+00  0.0000E+00  0.0000E+00
   8     0.0000E+00  0.0000E+00  0.0000E+00  0.0000E+00  0.0000E+00  0.0000E+00  0.0000E+00  0.0000E+00

 OVERLAP MATRIX - CELL N.  86( -5 -5  0)

              1           2           3           4           5           6           7           8
   1     0.0000E+00
   2     0.0000E+00  0.0000E+00
   3     0.0000E+00  0.0000E+00  0.0000E+00
   4     0.0000E+00  0.0000E+00  0.0000E+00  0.0000E+00
   5     0.0000E+00  0.0000E+00  0.0000E+00  0.0000E+00  0.0000E+00
   6     0.0000E+00  0.0000E+00  0.0000E+00  0.0000E+00  0.0000E+00  0.0000E+00
   7     0.0000E+00  0.0000E+00  0.0000E+00  0.0000E+00  0.0000E+00  0.0000E+00  0.0000E+00
   8     0.0000E+00  0.0000E+00  0.0000E+00  0.0000E+00  0.0000E+00  0.0000E+00  0.0000E+00  0.0000E+00

 OVERLAP MATRIX - CELL N.  87(  5  5  0)

              1           2           3           4           5           6           7           8
   1     0.0000E+00
   2     0.0000E+00  0.0000E+00
   3     0.0000E+00  0.0000E+00  0.0000E+00
   4     0.0000E+00  0.0000E+00  0.0000E+00  0.0000E+00
   5     0.0000E+00  0.0000E+00  0.0000E+00  0.0000E+00  0.0000E+00
   6     0.0000E+00  0.0000E+00  0.0000E+00  0.0000E+00  0.0000E+00  0.0000E+00
   7     0.0000E+00  0.0000E+00  0.0000E+00  0.0000E+00  0.0000E+00  0.0000E+00  0.0000E+00
   8     0.0000E+00  0.0000E+00  0.0000E+00  0.0000E+00  0.0000E+00  0.0000E+00  0.0000E+00  0.0000E+00

 OVERLAP MATRIX - CELL N.  88( -5  0  0)

              1           2           3           4           5           6           7           8
   1     0.0000E+00
   2     0.0000E+00  0.0000E+00
   3     0.0000E+00  0.0000E+00  0.0000E+00
   4     0.0000E+00  0.0000E+00  0.0000E+00  0.0000E+00
   5     0.0000E+00  0.0000E+00  0.0000E+00  0.0000E+00  0.0000E+00
   6     0.0000E+00  0.0000E+00  0.0000E+00  0.0000E+00  0.0000E+00  0.0000E+00
   7     0.0000E+00  0.0000E+00  0.0000E+00  0.0000E+00  0.0000E+00  0.0000E+00  0.0000E+00
   8     0.0000E+00  0.0000E+00  0.0000E+00  0.0000E+00  0.0000E+00  0.0000E+00  0.0000E+00  0.0000E+00

 OVERLAP MATRIX - CELL N.  89(  5  0  0)

              1           2           3           4           5           6           7           8
   1     0.0000E+00
   2     0.0000E+00  0.0000E+00
   3     0.0000E+00  0.0000E+00  0.0000E+00
   4     0.0000E+00  0.0000E+00  0.0000E+00  0.0000E+00
   5     0.0000E+00  0.0000E+00  0.0000E+00  0.0000E+00  0.0000E+00
   6     0.0000E+00  0.0000E+00  0.0000E+00  0.0000E+00  0.0000E+00  0.0000E+00
   7     0.0000E+00  0.0000E+00  0.0000E+00  0.0000E+00  0.0000E+00  0.0000E+00  0.0000E+00
   8     0.0000E+00  0.0000E+00  0.0000E+00  0.0000E+00  0.0000E+00  0.0000E+00  0.0000E+00  0.0000E+00

 OVERLAP MATRIX - CELL N.  90(  0 -5  0)

              1           2           3           4           5           6           7           8
   1     0.0000E+00
   2     0.0000E+00  0.0000E+00
   3     0.0000E+00  0.0000E+00  0.0000E+00
   4     0.0000E+00  0.0000E+00  0.0000E+00  0.0000E+00
   5     0.0000E+00  0.0000E+00  0.0000E+00  0.0000E+00  0.0000E+00
   6     0.0000E+00  0.0000E+00  0.0000E+00  0.0000E+00  0.0000E+00  0.0000E+00
   7     0.0000E+00  0.0000E+00  0.0000E+00  0.0000E+00  0.0000E+00  0.0000E+00  0.0000E+00
   8     0.0000E+00  0.0000E+00  0.0000E+00  0.0000E+00  0.0000E+00  0.0000E+00  0.0000E+00  0.0000E+00

 OVERLAP MATRIX - CELL N.  91(  0  5  0)

              1           2           3           4           5           6           7           8
   1     0.0000E+00
   2     0.0000E+00  0.0000E+00
   3     0.0000E+00  0.0000E+00  0.0000E+00
   4     0.0000E+00  0.0000E+00  0.0000E+00  0.0000E+00
   5     0.0000E+00  0.0000E+00  0.0000E+00  0.0000E+00  0.0000E+00
   6     0.0000E+00  0.0000E+00  0.0000E+00  0.0000E+00  0.0000E+00  0.0000E+00
   7     0.0000E+00  0.0000E+00  0.0000E+00  0.0000E+00  0.0000E+00  0.0000E+00  0.0000E+00
   8     0.0000E+00  0.0000E+00  0.0000E+00  0.0000E+00  0.0000E+00  0.0000E+00  0.0000E+00  0.0000E+00

 OVERLAP MATRIX - CELL N.  92( -6 -3  0)

              1           2           3           4           5           6           7           8
   1     0.0000E+00
   2     0.0000E+00  0.0000E+00
   3     0.0000E+00  0.0000E+00  0.0000E+00
   4     0.0000E+00  0.0000E+00  0.0000E+00  0.0000E+00
   5     0.0000E+00  0.0000E+00  0.0000E+00  0.0000E+00  0.0000E+00
   6     0.0000E+00  0.0000E+00  0.0000E+00  0.0000E+00  0.0000E+00  0.0000E+00
   7     0.0000E+00  0.0000E+00  0.0000E+00  0.0000E+00  0.0000E+00  0.0000E+00  0.0000E+00
   8     0.0000E+00  0.0000E+00  0.0000E+00  0.0000E+00  0.0000E+00  0.0000E+00  0.0000E+00  0.0000E+00

 OVERLAP MATRIX - CELL N.  93(  6  3  0)

              1           2           3           4           5           6           7           8
   1     0.0000E+00
   2     0.0000E+00  0.0000E+00
   3     0.0000E+00  0.0000E+00  0.0000E+00
   4     0.0000E+00  0.0000E+00  0.0000E+00  0.0000E+00
   5     0.0000E+00  0.0000E+00  0.0000E+00  0.0000E+00  0.0000E+00
   6     0.0000E+00  0.0000E+00  0.0000E+00  0.0000E+00  0.0000E+00  0.0000E+00
   7     0.0000E+00  0.0000E+00  0.0000E+00  0.0000E+00  0.0000E+00  0.0000E+00  0.0000E+00
   8     0.0000E+00  0.0000E+00  0.0000E+00  0.0000E+00  0.0000E+00  0.0000E+00  0.0000E+00  0.0000E+00

 OVERLAP MATRIX - CELL N.  94( -3 -6  0)

              1           2           3           4           5           6           7           8
   1     0.0000E+00
   2     0.0000E+00  0.0000E+00
   3     0.0000E+00  0.0000E+00  0.0000E+00
   4     0.0000E+00  0.0000E+00  0.0000E+00  0.0000E+00
   5     0.0000E+00  0.0000E+00  0.0000E+00  0.0000E+00  0.0000E+00
   6     0.0000E+00  0.0000E+00  0.0000E+00  0.0000E+00  0.0000E+00  0.0000E+00
   7     0.0000E+00  0.0000E+00  0.0000E+00  0.0000E+00  0.0000E+00  0.0000E+00  0.0000E+00
   8     0.0000E+00  0.0000E+00  0.0000E+00  0.0000E+00  0.0000E+00  0.0000E+00  0.0000E+00  0.0000E+00

 OVERLAP MATRIX - CELL N.  95(  3  6  0)

              1           2           3           4           5           6           7           8
   1     0.0000E+00
   2     0.0000E+00  0.0000E+00
   3     0.0000E+00  0.0000E+00  0.0000E+00
   4     0.0000E+00  0.0000E+00  0.0000E+00  0.0000E+00
   5     0.0000E+00  0.0000E+00  0.0000E+00  0.0000E+00  0.0000E+00
   6     0.0000E+00  0.0000E+00  0.0000E+00  0.0000E+00  0.0000E+00  0.0000E+00
   7     0.0000E+00  0.0000E+00  0.0000E+00  0.0000E+00  0.0000E+00  0.0000E+00  0.0000E+00
   8     0.0000E+00  0.0000E+00  0.0000E+00  0.0000E+00  0.0000E+00  0.0000E+00  0.0000E+00  0.0000E+00

 OVERLAP MATRIX - CELL N.  96( -3  3  0)

              1           2           3           4           5           6           7           8
   1     0.0000E+00
   2     0.0000E+00  0.0000E+00
   3     0.0000E+00  0.0000E+00  0.0000E+00
   4     0.0000E+00  0.0000E+00  0.0000E+00  0.0000E+00
   5     0.0000E+00  0.0000E+00  0.0000E+00  0.0000E+00  0.0000E+00
   6     0.0000E+00  0.0000E+00  0.0000E+00  0.0000E+00  0.0000E+00  0.0000E+00
   7     0.0000E+00  0.0000E+00  0.0000E+00  0.0000E+00  0.0000E+00  0.0000E+00  0.0000E+00
   8     0.0000E+00  0.0000E+00  0.0000E+00  0.0000E+00  0.0000E+00  0.0000E+00  0.0000E+00  0.0000E+00

 OVERLAP MATRIX - CELL N.  97(  3 -3  0)

              1           2           3           4           5           6           7           8
   1     0.0000E+00
   2     0.0000E+00  0.0000E+00
   3     0.0000E+00  0.0000E+00  0.0000E+00
   4     0.0000E+00  0.0000E+00  0.0000E+00  0.0000E+00
   5     0.0000E+00  0.0000E+00  0.0000E+00  0.0000E+00  0.0000E+00
   6     0.0000E+00  0.0000E+00  0.0000E+00  0.0000E+00  0.0000E+00  0.0000E+00
   7     0.0000E+00  0.0000E+00  0.0000E+00  0.0000E+00  0.0000E+00  0.0000E+00  0.0000E+00
   8     0.0000E+00  0.0000E+00  0.0000E+00  0.0000E+00  0.0000E+00  0.0000E+00  0.0000E+00  0.0000E+00

 OVERLAP MATRIX - CELL N.  98( -6 -4  0)

              1           2           3           4           5           6           7           8
   1     0.0000E+00
   2     0.0000E+00  0.0000E+00
   3     0.0000E+00  0.0000E+00  0.0000E+00
   4     0.0000E+00  0.0000E+00  0.0000E+00  0.0000E+00
   5     0.0000E+00  0.0000E+00  0.0000E+00  0.0000E+00  0.0000E+00
   6     0.0000E+00  0.0000E+00  0.0000E+00  0.0000E+00  0.0000E+00  0.0000E+00
   7     0.0000E+00  0.0000E+00  0.0000E+00  0.0000E+00  0.0000E+00  0.0000E+00  0.0000E+00
   8     0.0000E+00  0.0000E+00  0.0000E+00  0.0000E+00  0.0000E+00  0.0000E+00  0.0000E+00  0.0000E+00

 OVERLAP MATRIX - CELL N.  99(  6  4  0)

              1           2           3           4           5           6           7           8
   1     0.0000E+00
   2     0.0000E+00  0.0000E+00
   3     0.0000E+00  0.0000E+00  0.0000E+00
   4     0.0000E+00  0.0000E+00  0.0000E+00  0.0000E+00
   5     0.0000E+00  0.0000E+00  0.0000E+00  0.0000E+00  0.0000E+00
   6     0.0000E+00  0.0000E+00  0.0000E+00  0.0000E+00  0.0000E+00  0.0000E+00
   7     0.0000E+00  0.0000E+00  0.0000E+00  0.0000E+00  0.0000E+00  0.0000E+00  0.0000E+00
   8     0.0000E+00  0.0000E+00  0.0000E+00  0.0000E+00  0.0000E+00  0.0000E+00  0.0000E+00  0.0000E+00

 OVERLAP MATRIX - CELL N. 100( -6 -2  0)

              1           2           3           4           5           6           7           8
   1     0.0000E+00
   2     0.0000E+00  0.0000E+00
   3     0.0000E+00  0.0000E+00  0.0000E+00
   4     0.0000E+00  0.0000E+00  0.0000E+00  0.0000E+00
   5     0.0000E+00  0.0000E+00  0.0000E+00  0.0000E+00  0.0000E+00
   6     0.0000E+00  0.0000E+00  0.0000E+00  0.0000E+00  0.0000E+00  0.0000E+00
   7     0.0000E+00  0.0000E+00  0.0000E+00  0.0000E+00  0.0000E+00  0.0000E+00  0.0000E+00
   8     0.0000E+00  0.0000E+00  0.0000E+00  0.0000E+00  0.0000E+00  0.0000E+00  0.0000E+00  0.0000E+00

 FOCK MATRIX - CELL N.   1(  0  0  0)

              1           2           3           4           5           6           7           8
   1    -6.1801E-01
   2    -1.4311E-16 -4.8215E-01
   3    -9.7578E-17 -4.1633E-17 -4.8215E-01
   4    -1.0662E-07  0.0000E+00  0.0000E+00 -2.5425E-01
   5    -4.0369E-01  2.4308E-01 -4.2103E-01  8.9682E-09 -8.4331E-01
   6    -1.3809E-01 -1.2424E-01 -1.6545E-01  1.5681E-08  5.2042E-17 -4.6826E-01
   7     2.3917E-01 -1.6545E-01  6.6804E-02 -2.7143E-08  1.0408E-17  2.7756E-17 -4.6826E-01
   8    -2.7017E-10 -1.1412E-09  1.9928E-09 -1.7602E-01  7.5205E-08  0.0000E+00  0.0000E+00 -3.4763E-01

 FOCK MATRIX - CELL N.   2( -1 -1  0)

              1           2           3           4           5           6           7           8
   1    -1.6214E-01
   2     1.8652E-01  1.1208E-01
   3     1.1132E-01  1.3089E-01 -3.2739E-02
   4    -9.6387E-08 -9.7593E-08 -7.0156E-08 -6.8583E-02
   5    -6.0891E-02 -6.2556E-02 -1.0835E-01 -8.0681E-09 -5.0696E-02
   6     3.6006E-02  3.7395E-03  5.8420E-02  6.5999E-09  6.9473E-02  6.7167E-02
   7     6.2364E-02  5.8420E-02  7.1198E-02  1.1439E-08  4.6034E-02  5.9728E-02  7.8808E-03
   8    -1.1997E-08 -7.9026E-09 -1.3680E-08 -2.5664E-02  5.0433E-09  9.0209E-09  4.7185E-09 -2.4607E-02

 FOCK MATRIX - CELL N.   3(  1  1  0)

              1           2           3           4           5           6           7           8
   1    -1.6214E-01
   2    -1.8967E-01  1.1208E-01
   3    -1.0587E-01  1.1994E-01 -3.2739E-02
   4    -9.6385E-08  1.0954E-07  4.9435E-08 -6.8583E-02
   5    -6.0891E-02  1.2511E-01  8.4624E-12 -8.0681E-09 -5.0696E-02
   6    -7.2011E-02  1.0493E-01 -2.0084E-10 -1.3207E-08 -7.4603E-02  6.7167E-02
   7    -3.2301E-11 -6.9038E-11 -2.9990E-02 -3.9103E-12 -3.7148E-02  4.2959E-02  7.8808E-03
   8    -1.1997E-08  1.5798E-08 -3.9103E-12 -2.5664E-02  5.0308E-09 -8.6161E-09 -5.4642E-09 -2.4607E-02

 FOCK MATRIX - CELL N.   4( -1  0  0)

              1           2           3           4           5           6           7           8
   1    -1.6214E-01
   2     1.8652E-01  1.1208E-01
   3    -1.1132E-01 -1.3089E-01 -3.2739E-02
   4    -9.6385E-08 -9.7583E-08  7.0150E-08 -6.8583E-02
   5    -4.0369E-01 -4.8616E-01 -6.3780E-13  8.9682E-09 -5.0696E-02
   6     2.7617E-01  1.6233E-01 -2.1920E-11 -3.1347E-08  6.9473E-02  6.7167E-02
   7    -7.4701E-12 -1.5656E-11 -2.1977E-01 -8.1035E-12 -4.6034E-02 -5.9728E-02  7.8808E-03
   8    -2.7017E-10  2.2964E-09 -8.1034E-12 -1.7602E-01  5.0308E-09  9.0402E-09 -4.7296E-09 -2.4607E-02

 FOCK MATRIX - CELL N.   5(  1  0  0)

              1           2           3           4           5           6           7           8
   1    -1.6214E-01
   2    -1.8967E-01  1.1208E-01
   3     1.0587E-01 -1.1994E-01 -3.2739E-02
   4    -9.6387E-08  1.0955E-07 -4.9440E-08 -6.8583E-02
   5    -1.2860E-02  2.5733E-02 -2.3223E-02 -2.1730E-09 -5.0696E-02
   6    -1.3967E-02  1.8745E-02 -2.4071E-02 -4.0414E-09 -7.4603E-02  6.7167E-02
   7     1.0886E-02 -2.0482E-02  1.1541E-02  5.7212E-10  3.7148E-02 -4.2959E-02  7.8808E-03
   8    -3.0106E-09  3.9413E-09 -6.3411E-09 -6.3735E-03  5.0433E-09 -8.5968E-09  5.4531E-09 -2.4607E-02

 FOCK MATRIX - CELL N.   6(  0 -1  0)

              1           2           3           4           5           6           7           8
   1    -1.6214E-01
   2     3.1496E-03 -1.0515E-01
   3     2.1719E-01 -5.4781E-03  1.8449E-01
   4    -9.6385E-08 -1.1960E-08 -1.1958E-07 -6.8583E-02
   5    -1.2860E-02  7.2456E-03 -3.3897E-02 -2.1510E-09 -5.0696E-02
   6    -2.4445E-03 -5.9503E-03 -6.2238E-03  1.3555E-09  5.1306E-03 -2.1762E-02
   7     1.7539E-02 -9.8133E-03  3.6236E-02  5.1576E-09  8.3182E-02 -8.3846E-03  9.6810E-02
   8    -3.2208E-09  3.5544E-09 -6.2685E-09 -6.3735E-03  5.0308E-09 -4.2410E-10  1.0194E-08 -2.4607E-02

 FOCK MATRIX - CELL N.   7(  0  1  0)

              1           2           3           4           5           6           7           8
   1    -1.6214E-01
   2     3.1496E-03 -1.0515E-01
   3    -2.1719E-01  5.4781E-03  1.8449E-01
   4    -9.6387E-08 -1.1960E-08  1.1960E-07 -6.8583E-02
   5    -4.0369E-01  2.4308E-01  4.2103E-01  8.9682E-09 -5.0696E-02
   6    -1.3809E-01 -1.2424E-01  1.6545E-01  1.5667E-08  5.1306E-03 -2.1762E-02
   7    -2.3917E-01  1.6545E-01  6.6804E-02  2.7152E-08 -8.3182E-02  8.3846E-03  9.6810E-02
   8    -2.7017E-10 -1.1552E-09 -1.9847E-09 -1.7602E-01  5.0433E-09 -4.2410E-10 -1.0172E-08 -2.4607E-02

 FOCK MATRIX - CELL N.   8( -2 -1  0)

              1           2           3           4           5           6           7           8
   1    -1.5295E-02
   2     3.2523E-02  5.5259E-02
   3    -9.6779E-12  1.8462E-11 -9.9999E-03
   4    -1.6322E-08 -3.9423E-08 -1.5656E-12 -7.2181E-03
   5    -1.2860E-02 -3.2978E-02 -1.0674E-02 -2.1730E-09 -6.5412E-04
   6     1.6411E-02  3.2634E-02  1.2463E-02  2.5162E-09  1.7615E-03  4.0759E-03
   7     6.6525E-03  1.6053E-02 -2.3480E-03  3.2139E-09  2.5455E-10 -9.3606E-10 -4.4789E-04
   8    -3.0106E-09 -7.4622E-09 -2.4274E-10 -6.3735E-03 -2.1257E-10 -7.1490E-10 -1.8039E-10 -3.8288E-04

 FOCK MATRIX - CELL N.   9(  2  1  0)

              1           2           3           4           5           6           7           8
   1    -1.5295E-02
   2    -3.2247E-02  5.5259E-02
   3     3.3046E-12 -3.4894E-11 -9.9999E-03
   4    -1.7258E-08  3.4904E-08 -1.5656E-12 -7.2181E-03
   5    -1.0663E-03  3.1974E-03 -7.9775E-04 -3.4839E-10 -6.5412E-04
[...]
   6     0.0000E+00  0.0000E+00  0.0000E+00  0.0000E+00  0.0000E+00  0.0000E+00
   7     0.0000E+00  0.0000E+00  0.0000E+00  0.0000E+00  0.0000E+00  0.0000E+00  0.0000E+00
   8     0.0000E+00  0.0000E+00  0.0000E+00  0.0000E+00  0.0000E+00  0.0000E+00  0.0000E+00  0.0000E+00

 FOCK MATRIX - CELL N.  71(  2  5  0)

              1           2           3           4           5           6           7           8
   1    -7.1677E-08
   2    -3.5327E-08  0.0000E+00
   3    -8.2034E-08  0.0000E+00  0.0000E+00
   4     1.0059E-12  0.0000E+00  0.0000E+00  0.0000E+00
   5     0.0000E+00  0.0000E+00  0.0000E+00  0.0000E+00  0.0000E+00
   6     0.0000E+00  0.0000E+00  0.0000E+00  0.0000E+00  0.0000E+00  0.0000E+00
   7     0.0000E+00  0.0000E+00  0.0000E+00  0.0000E+00  0.0000E+00  0.0000E+00  0.0000E+00
   8     0.0000E+00  0.0000E+00  0.0000E+00  0.0000E+00  0.0000E+00  0.0000E+00  0.0000E+00  0.0000E+00

 FOCK MATRIX - CELL N.  72( -2  3  0)

              1           2           3           4           5           6           7           8
   1    -7.1677E-08
   2     3.5370E-08  0.0000E+00
   3    -8.2049E-08  0.0000E+00  0.0000E+00
   4    -1.4985E-12  0.0000E+00  0.0000E+00  0.0000E+00
   5    -4.3541E-08  0.0000E+00  0.0000E+00  0.0000E+00  0.0000E+00
   6     2.7665E-08  0.0000E+00  0.0000E+00  0.0000E+00  0.0000E+00  0.0000E+00
   7    -6.9434E-08  0.0000E+00  0.0000E+00  0.0000E+00  0.0000E+00  0.0000E+00  0.0000E+00
   8    -1.3924E-11  0.0000E+00  0.0000E+00  0.0000E+00  0.0000E+00  0.0000E+00  0.0000E+00  0.0000E+00

 FOCK MATRIX - CELL N.  73(  2 -3  0)

              1           2           3           4           5           6           7           8
   1    -7.1677E-08
   2    -3.5327E-08  0.0000E+00
   3     8.2038E-08  0.0000E+00  0.0000E+00
   4     2.0442E-12  0.0000E+00  0.0000E+00  0.0000E+00
   5     0.0000E+00  0.0000E+00  0.0000E+00  0.0000E+00  0.0000E+00
   6     0.0000E+00  0.0000E+00  0.0000E+00  0.0000E+00  0.0000E+00  0.0000E+00
   7     0.0000E+00  0.0000E+00  0.0000E+00  0.0000E+00  0.0000E+00  0.0000E+00  0.0000E+00
   8     0.0000E+00  0.0000E+00  0.0000E+00  0.0000E+00  0.0000E+00  0.0000E+00  0.0000E+00  0.0000E+00

 FOCK MATRIX - CELL N.  74( -5 -4  0)

              1           2           3           4           5           6           7           8
   1    -1.3292E-08
   2     0.0000E+00  0.0000E+00
   3     0.0000E+00  0.0000E+00  0.0000E+00
   4     0.0000E+00  0.0000E+00  0.0000E+00  0.0000E+00
   5     0.0000E+00  0.0000E+00  0.0000E+00  0.0000E+00  0.0000E+00
   6     0.0000E+00  0.0000E+00  0.0000E+00  0.0000E+00  0.0000E+00  0.0000E+00
   7     0.0000E+00  0.0000E+00  0.0000E+00  0.0000E+00  0.0000E+00  0.0000E+00  0.0000E+00
   8     0.0000E+00  0.0000E+00  0.0000E+00  0.0000E+00  0.0000E+00  0.0000E+00  0.0000E+00  0.0000E+00

 FOCK MATRIX - CELL N.  75(  5  4  0)

              1           2           3           4           5           6           7           8
   1    -1.3292E-08
   2     0.0000E+00  0.0000E+00
   3     0.0000E+00  0.0000E+00  0.0000E+00
   4     0.0000E+00  0.0000E+00  0.0000E+00  0.0000E+00
   5     0.0000E+00  0.0000E+00  0.0000E+00  0.0000E+00  0.0000E+00
   6     0.0000E+00  0.0000E+00  0.0000E+00  0.0000E+00  0.0000E+00  0.0000E+00
   7     0.0000E+00  0.0000E+00  0.0000E+00  0.0000E+00  0.0000E+00  0.0000E+00  0.0000E+00
   8     0.0000E+00  0.0000E+00  0.0000E+00  0.0000E+00  0.0000E+00  0.0000E+00  0.0000E+00  0.0000E+00

 FOCK MATRIX - CELL N.  76( -5 -1  0)

              1           2           3           4           5           6           7           8
   1    -1.3291E-08
   2     0.0000E+00  0.0000E+00
   3     0.0000E+00  0.0000E+00  0.0000E+00
   4     0.0000E+00  0.0000E+00  0.0000E+00  0.0000E+00
   5     0.0000E+00  0.0000E+00  0.0000E+00  0.0000E+00  0.0000E+00
   6     0.0000E+00  0.0000E+00  0.0000E+00  0.0000E+00  0.0000E+00  0.0000E+00
   7     0.0000E+00  0.0000E+00  0.0000E+00  0.0000E+00  0.0000E+00  0.0000E+00  0.0000E+00
   8     0.0000E+00  0.0000E+00  0.0000E+00  0.0000E+00  0.0000E+00  0.0000E+00  0.0000E+00  0.0000E+00

 FOCK MATRIX - CELL N.  77(  5  1  0)

              1           2           3           4           5           6           7           8
   1    -1.3291E-08
   2     0.0000E+00  0.0000E+00
   3     0.0000E+00  0.0000E+00  0.0000E+00
   4     0.0000E+00  0.0000E+00  0.0000E+00  0.0000E+00
   5     0.0000E+00  0.0000E+00  0.0000E+00  0.0000E+00  0.0000E+00
   6     0.0000E+00  0.0000E+00  0.0000E+00  0.0000E+00  0.0000E+00  0.0000E+00
   7     0.0000E+00  0.0000E+00  0.0000E+00  0.0000E+00  0.0000E+00  0.0000E+00  0.0000E+00
   8     0.0000E+00  0.0000E+00  0.0000E+00  0.0000E+00  0.0000E+00  0.0000E+00  0.0000E+00  0.0000E+00

 FOCK MATRIX - CELL N.  78( -4 -5  0)

              1           2           3           4           5           6           7           8
   1    -1.3291E-08
   2     0.0000E+00  0.0000E+00
   3     0.0000E+00  0.0000E+00  0.0000E+00
   4     0.0000E+00  0.0000E+00  0.0000E+00  0.0000E+00
   5     0.0000E+00  0.0000E+00  0.0000E+00  0.0000E+00  0.0000E+00
   6     0.0000E+00  0.0000E+00  0.0000E+00  0.0000E+00  0.0000E+00  0.0000E+00
   7     0.0000E+00  0.0000E+00  0.0000E+00  0.0000E+00  0.0000E+00  0.0000E+00  0.0000E+00
   8     0.0000E+00  0.0000E+00  0.0000E+00  0.0000E+00  0.0000E+00  0.0000E+00  0.0000E+00  0.0000E+00

 FOCK MATRIX - CELL N.  79(  4  5  0)

              1           2           3           4           5           6           7           8
   1    -1.3291E-08
   2     0.0000E+00  0.0000E+00
   3     0.0000E+00  0.0000E+00  0.0000E+00
   4     0.0000E+00  0.0000E+00  0.0000E+00  0.0000E+00
   5     0.0000E+00  0.0000E+00  0.0000E+00  0.0000E+00  0.0000E+00
   6     0.0000E+00  0.0000E+00  0.0000E+00  0.0000E+00  0.0000E+00  0.0000E+00
   7     0.0000E+00  0.0000E+00  0.0000E+00  0.0000E+00  0.0000E+00  0.0000E+00  0.0000E+00
   8     0.0000E+00  0.0000E+00  0.0000E+00  0.0000E+00  0.0000E+00  0.0000E+00  0.0000E+00  0.0000E+00

 FOCK MATRIX - CELL N.  80( -4  1  0)

              1           2           3           4           5           6           7           8
   1    -1.3292E-08
   2     0.0000E+00  0.0000E+00
   3     0.0000E+00  0.0000E+00  0.0000E+00
   4     0.0000E+00  0.0000E+00  0.0000E+00  0.0000E+00
   5     0.0000E+00  0.0000E+00  0.0000E+00  0.0000E+00  0.0000E+00
   6     0.0000E+00  0.0000E+00  0.0000E+00  0.0000E+00  0.0000E+00  0.0000E+00
   7     0.0000E+00  0.0000E+00  0.0000E+00  0.0000E+00  0.0000E+00  0.0000E+00  0.0000E+00
   8     0.0000E+00  0.0000E+00  0.0000E+00  0.0000E+00  0.0000E+00  0.0000E+00  0.0000E+00  0.0000E+00

 FOCK MATRIX - CELL N.  81(  4 -1  0)

              1           2           3           4           5           6           7           8
   1    -1.3292E-08
   2     0.0000E+00  0.0000E+00
   3     0.0000E+00  0.0000E+00  0.0000E+00
   4     0.0000E+00  0.0000E+00  0.0000E+00  0.0000E+00
   5     0.0000E+00  0.0000E+00  0.0000E+00  0.0000E+00  0.0000E+00
   6     0.0000E+00  0.0000E+00  0.0000E+00  0.0000E+00  0.0000E+00  0.0000E+00
   7     0.0000E+00  0.0000E+00  0.0000E+00  0.0000E+00  0.0000E+00  0.0000E+00  0.0000E+00
   8     0.0000E+00  0.0000E+00  0.0000E+00  0.0000E+00  0.0000E+00  0.0000E+00  0.0000E+00  0.0000E+00

 FOCK MATRIX - CELL N.  82( -1 -5  0)

              1           2           3           4           5           6           7           8
   1    -1.3292E-08
   2     0.0000E+00  0.0000E+00
   3     0.0000E+00  0.0000E+00  0.0000E+00
   4     0.0000E+00  0.0000E+00  0.0000E+00  0.0000E+00
   5     0.0000E+00  0.0000E+00  0.0000E+00  0.0000E+00  0.0000E+00
   6     0.0000E+00  0.0000E+00  0.0000E+00  0.0000E+00  0.0000E+00  0.0000E+00
   7     0.0000E+00  0.0000E+00  0.0000E+00  0.0000E+00  0.0000E+00  0.0000E+00  0.0000E+00
   8     0.0000E+00  0.0000E+00  0.0000E+00  0.0000E+00  0.0000E+00  0.0000E+00  0.0000E+00  0.0000E+00

 FOCK MATRIX - CELL N.  83(  1  5  0)

              1           2           3           4           5           6           7           8
   1    -1.3292E-08
   2     0.0000E+00  0.0000E+00
   3     0.0000E+00  0.0000E+00  0.0000E+00
   4     0.0000E+00  0.0000E+00  0.0000E+00  0.0000E+00
   5     0.0000E+00  0.0000E+00  0.0000E+00  0.0000E+00  0.0000E+00
   6     0.0000E+00  0.0000E+00  0.0000E+00  0.0000E+00  0.0000E+00  0.0000E+00
   7     0.0000E+00  0.0000E+00  0.0000E+00  0.0000E+00  0.0000E+00  0.0000E+00  0.0000E+00
   8     0.0000E+00  0.0000E+00  0.0000E+00  0.0000E+00  0.0000E+00  0.0000E+00  0.0000E+00  0.0000E+00

 FOCK MATRIX - CELL N.  84( -1  4  0)

              1           2           3           4           5           6           7           8
   1    -1.3291E-08
   2     0.0000E+00  0.0000E+00
   3     0.0000E+00  0.0000E+00  0.0000E+00
   4     0.0000E+00  0.0000E+00  0.0000E+00  0.0000E+00
   5     0.0000E+00  0.0000E+00  0.0000E+00  0.0000E+00  0.0000E+00
   6     0.0000E+00  0.0000E+00  0.0000E+00  0.0000E+00  0.0000E+00  0.0000E+00
   7     0.0000E+00  0.0000E+00  0.0000E+00  0.0000E+00  0.0000E+00  0.0000E+00  0.0000E+00
   8     0.0000E+00  0.0000E+00  0.0000E+00  0.0000E+00  0.0000E+00  0.0000E+00  0.0000E+00  0.0000E+00

 FOCK MATRIX - CELL N.  85(  1 -4  0)

              1           2           3           4           5           6           7           8
   1    -1.3291E-08
   2     0.0000E+00  0.0000E+00
   3     0.0000E+00  0.0000E+00  0.0000E+00
   4     0.0000E+00  0.0000E+00  0.0000E+00  0.0000E+00
   5     0.0000E+00  0.0000E+00  0.0000E+00  0.0000E+00  0.0000E+00
   6     0.0000E+00  0.0000E+00  0.0000E+00  0.0000E+00  0.0000E+00  0.0000E+00
   7     0.0000E+00  0.0000E+00  0.0000E+00  0.0000E+00  0.0000E+00  0.0000E+00  0.0000E+00
   8     0.0000E+00  0.0000E+00  0.0000E+00  0.0000E+00  0.0000E+00  0.0000E+00  0.0000E+00  0.0000E+00

 FOCK MATRIX - CELL N.  86( -5 -5  0)

              1           2           3           4           5           6           7           8
   1     0.0000E+00
   2     0.0000E+00  0.0000E+00
   3     0.0000E+00  0.0000E+00  0.0000E+00
   4     0.0000E+00  0.0000E+00  0.0000E+00  0.0000E+00
   5     0.0000E+00  0.0000E+00  0.0000E+00  0.0000E+00  0.0000E+00
   6     0.0000E+00  0.0000E+00  0.0000E+00  0.0000E+00  0.0000E+00  0.0000E+00
   7     0.0000E+00  0.0000E+00  0.0000E+00  0.0000E+00  0.0000E+00  0.0000E+00  0.0000E+00
   8     0.0000E+00  0.0000E+00  0.0000E+00  0.0000E+00  0.0000E+00  0.0000E+00  0.0000E+00  0.0000E+00

 FOCK MATRIX - CELL N.  87(  5  5  0)

              1           2           3           4           5           6           7           8
   1     0.0000E+00
   2     0.0000E+00  0.0000E+00
   3     0.0000E+00  0.0000E+00  0.0000E+00
   4     0.0000E+00  0.0000E+00  0.0000E+00  0.0000E+00
   5     0.0000E+00  0.0000E+00  0.0000E+00  0.0000E+00  0.0000E+00
   6     0.0000E+00  0.0000E+00  0.0000E+00  0.0000E+00  0.0000E+00  0.0000E+00
   7     0.0000E+00  0.0000E+00  0.0000E+00  0.0000E+00  0.0000E+00  0.0000E+00  0.0000E+00
   8     0.0000E+00  0.0000E+00  0.0000E+00  0.0000E+00  0.0000E+00  0.0000E+00  0.0000E+00  0.0000E+00

 FOCK MATRIX - CELL N.  88( -5  0  0)

              1           2           3           4           5           6           7           8
   1     0.0000E+00
   2     0.0000E+00  0.0000E+00
   3     0.0000E+00  0.0000E+00  0.0000E+00
   4     0.0000E+00  0.0000E+00  0.0000E+00  0.0000E+00
   5     0.0000E+00  0.0000E+00  0.0000E+00  0.0000E+00  0.0000E+00
   6     0.0000E+00  0.0000E+00  0.0000E+00  0.0000E+00  0.0000E+00  0.0000E+00
   7     0.0000E+00  0.0000E+00  0.0000E+00  0.0000E+00  0.0000E+00  0.0000E+00  0.0000E+00
   8     0.0000E+00  0.0000E+00  0.0000E+00  0.0000E+00  0.0000E+00  0.0000E+00  0.0000E+00  0.0000E+00

 FOCK MATRIX - CELL N.  89(  5  0  0)

              1           2           3           4           5           6           7           8
   1     0.0000E+00
   2     0.0000E+00  0.0000E+00
   3     0.0000E+00  0.0000E+00  0.0000E+00
   4     0.0000E+00  0.0000E+00  0.0000E+00  0.0000E+00
   5     0.0000E+00  0.0000E+00  0.0000E+00  0.0000E+00  0.0000E+00
   6     0.0000E+00  0.0000E+00  0.0000E+00  0.0000E+00  0.0000E+00  0.0000E+00
   7     0.0000E+00  0.0000E+00  0.0000E+00  0.0000E+00  0.0000E+00  0.0000E+00  0.0000E+00
   8     0.0000E+00  0.0000E+00  0.0000E+00  0.0000E+00  0.0000E+00  0.0000E+00  0.0000E+00  0.0000E+00

 FOCK MATRIX - CELL N.  90(  0 -5  0)

              1           2           3           4           5           6           7           8
   1     0.0000E+00
   2     0.0000E+00  0.0000E+00
   3     0.0000E+00  0.0000E+00  0.0000E+00
   4     0.0000E+00  0.0000E+00  0.0000E+00  0.0000E+00
   5     0.0000E+00  0.0000E+00  0.0000E+00  0.0000E+00  0.0000E+00
   6     0.0000E+00  0.0000E+00  0.0000E+00  0.0000E+00  0.0000E+00  0.0000E+00
   7     0.0000E+00  0.0000E+00  0.0000E+00  0.0000E+00  0.0000E+00  0.0000E+00  0.0000E+00
   8     0.0000E+00  0.0000E+00  0.0000E+00  0.0000E+00  0.0000E+00  0.0000E+00  0.0000E+00  0.0000E+00

 FOCK MATRIX - CELL N.  91(  0  5  0)

              1           2           3           4           5           6           7           8
   1     0.0000E+00
   2     0.0000E+00  0.0000E+00
   3     0.0000E+00  0.0000E+00  0.0000E+00
   4     0.0000E+00  0.0000E+00  0.0000E+00  0.0000E+00
   5     0.0000E+00  0.0000E+00  0.0000E+00  0.0000E+00  0.0000E+00
   6     0.0000E+00  0.0000E+00  0.0000E+00  0.0000E+00  0.0000E+00  0.0000E+00
   7     0.0000E+00  0.0000E+00  0.0000E+00  0.0000E+00  0.0000E+00  0.0000E+00  0.0000E+00
   8     0.0000E+00  0.0000E+00  0.0000E+00  0.0000E+00  0.0000E+00  0.0000E+00  0.0000E+00  0.0000E+00

 FOCK MATRIX - CELL N.  92( -6 -3  0)

              1           2           3           4           5           6           7           8
   1     0.0000E+00
   2     0.0000E+00  0.0000E+00
   3     0.0000E+00  0.0000E+00  0.0000E+00
   4     0.0000E+00  0.0000E+00  0.0000E+00  0.0000E+00
   5     0.0000E+00  0.0000E+00  0.0000E+00  0.0000E+00  0.0000E+00
   6     0.0000E+00  0.0000E+00  0.0000E+00  0.0000E+00  0.0000E+00  0.0000E+00
   7     0.0000E+00  0.0000E+00  0.0000E+00  0.0000E+00  0.0000E+00  0.0000E+00  0.0000E+00
   8     0.0000E+00  0.0000E+00  0.0000E+00  0.0000E+00  0.0000E+00  0.0000E+00  0.0000E+00  0.0000E+00

 FOCK MATRIX - CELL N.  93(  6  3  0)

              1           2           3           4           5           6           7           8
   1     0.0000E+00
   2     0.0000E+00  0.0000E+00
   3     0.0000E+00  0.0000E+00  0.0000E+00
   4     0.0000E+00  0.0000E+00  0.0000E+00  0.0000E+00
   5     0.0000E+00  0.0000E+00  0.0000E+00  0.0000E+00  0.0000E+00
   6     0.0000E+00  0.0000E+00  0.0000E+00  0.0000E+00  0.0000E+00  0.0000E+00
   7     0.0000E+00  0.0000E+00  0.0000E+00  0.0000E+00  0.0000E+00  0.0000E+00  0.0000E+00
   8     0.0000E+00  0.0000E+00  0.0000E+00  0.0000E+00  0.0000E+00  0.0000E+00  0.0000E+00  0.0000E+00

 FOCK MATRIX - CELL N.  94( -3 -6  0)

              1           2           3           4           5           6           7           8
   1     0.0000E+00
   2     0.0000E+00  0.0000E+00
   3     0.0000E+00  0.0000E+00  0.0000E+00
   4     0.0000E+00  0.0000E+00  0.0000E+00  0.0000E+00
   5     0.0000E+00  0.0000E+00  0.0000E+00  0.0000E+00  0.0000E+00
   6     0.0000E+00  0.0000E+00  0.0000E+00  0.0000E+00  0.0000E+00  0.0000E+00
   7     0.0000E+00  0.0000E+00  0.0000E+00  0.0000E+00  0.0000E+00  0.0000E+00  0.0000E+00
   8     0.0000E+00  0.0000E+00  0.0000E+00  0.0000E+00  0.0000E+00  0.0000E+00  0.0000E+00  0.0000E+00

 FOCK MATRIX - CELL N.  95(  3  6  0)

              1           2           3           4           5           6           7           8
   1     0.0000E+00
   2     0.0000E+00  0.0000E+00
   3     0.0000E+00  0.0000E+00  0.0000E+00
   4     0.0000E+00  0.0000E+00  0.0000E+00  0.0000E+00
   5     0.0000E+00  0.0000E+00  0.0000E+00  0.0000E+00  0.0000E+00
   6     0.0000E+00  0.0000E+00  0.0000E+00  0.0000E+00  0.0000E+00  0.0000E+00
   7     0.0000E+00  0.0000E+00  0.0000E+00  0.0000E+00  0.0000E+00  0.0000E+00  0.0000E+00
   8     0.0000E+00  0.0000E+00  0.0000E+00  0.0000E+00  0.0000E+00  0.0000E+00  0.0000E+00  0.0000E+00

 FOCK MATRIX - CELL N.  96( -3  3  0)

              1           2           3           4           5           6           7           8
   1     0.0000E+00
   2     0.0000E+00  0.0000E+00
   3     0.0000E+00  0.0000E+00  0.0000E+00
   4     0.0000E+00  0.0000E+00  0.0000E+00  0.0000E+00
   5     0.0000E+00  0.0000E+00  0.0000E+00  0.0000E+00  0.0000E+00
   6     0.0000E+00  0.0000E+00  0.0000E+00  0.0000E+00  0.0000E+00  0.0000E+00
   7     0.0000E+00  0.0000E+00  0.0000E+00  0.0000E+00  0.0000E+00  0.0000E+00  0.0000E+00
   8     0.0000E+00  0.0000E+00  0.0000E+00  0.0000E+00  0.0000E+00  0.0000E+00  0.0000E+00  0.0000E+00

 FOCK MATRIX - CELL N.  97(  3 -3  0)

              1           2           3           4           5           6           7           8
   1     0.0000E+00
   2     0.0000E+00  0.0000E+00
   3     0.0000E+00  0.0000E+00  0.0000E+00
   4     0.0000E+00  0.0000E+00  0.0000E+00  0.0000E+00
   5     0.0000E+00  0.0000E+00  0.0000E+00  0.0000E+00  0.0000E+00
   6     0.0000E+00  0.0000E+00  0.0000E+00  0.0000E+00  0.0000E+00  0.0000E+00
   7     0.0000E+00  0.0000E+00  0.0000E+00  0.0000E+00  0.0000E+00  0.0000E+00  0.0000E+00
   8     0.0000E+00  0.0000E+00  0.0000E+00  0.0000E+00  0.0000E+00  0.0000E+00  0.0000E+00  0.0000E+00

 FOCK MATRIX - CELL N.  98( -6 -4  0)

              1           2           3           4           5           6           7           8
   1     0.0000E+00
   2     0.0000E+00  0.0000E+00
   3     0.0000E+00  0.0000E+00  0.0000E+00
   4     0.0000E+00  0.0000E+00  0.0000E+00  0.0000E+00
   5     0.0000E+00  0.0000E+00  0.0000E+00  0.0000E+00  0.0000E+00
   6     0.0000E+00  0.0000E+00  0.0000E+00  0.0000E+00  0.0000E+00  0.0000E+00
   7     0.0000E+00  0.0000E+00  0.0000E+00  0.0000E+00  0.0000E+00  0.0000E+00  0.0000E+00
   8     0.0000E+00  0.0000E+00  0.0000E+00  0.0000E+00  0.0000E+00  0.0000E+00  0.0000E+00  0.0000E+00

 FOCK MATRIX - CELL N.  99(  6  4  0)

              1           2           3           4           5           6           7           8
   1     0.0000E+00
   2     0.0000E+00  0.0000E+00
   3     0.0000E+00  0.0000E+00  0.0000E+00
   4     0.0000E+00  0.0000E+00  0.0000E+00  0.0000E+00
   5     0.0000E+00  0.0000E+00  0.0000E+00  0.0000E+00  0.0000E+00
   6     0.0000E+00  0.0000E+00  0.0000E+00  0.0000E+00  0.0000E+00  0.0000E+00
   7     0.0000E+00  0.0000E+00  0.0000E+00  0.0000E+00  0.0000E+00  0.0000E+00  0.0000E+00
   8     0.0000E+00  0.0000E+00  0.0000E+00  0.0000E+00  0.0000E+00  0.0000E+00  0.0000E+00  0.0000E+00

 FOCK MATRIX - CELL N. 100( -6 -2  0)

              1           2           3           4           5           6           7           8
   1     0.0000E+00
   2     0.0000E+00  0.0000E+00
   3     0.0000E+00  0.0000E+00  0.0000E+00
   4     0.0000E+00  0.0000E+00  0.0000E+00  0.0000E+00
   5     0.0000E+00  0.0000E+00  0.0000E+00  0.0000E+00  0.0000E+00
   6     0.0000E+00  0.0000E+00  0.0000E+00  0.0000E+00  0.0000E+00  0.0000E+00
   7     0.0000E+00  0.0000E+00  0.0000E+00  0.0000E+00  0.0000E+00  0.0000E+00  0.0000E+00
   8     0.0000E+00  0.0000E+00  0.0000E+00  0.0000E+00  0.0000E+00  0.0000E+00  0.0000E+00  0.0000E+00
 TTTTTTTTTTTTTTTTTTTTTTTTTTTTTT BASISSET    TELAPSE        0.06 TCPU        0.03
 ENDPROP   
 TTTTTTTTTTTTTTTTTTTTTTTTTTTTTT END         TELAPSE        0.06 TCPU        0.03
 EEEEEEEEEE TERMINATION  DATE 07 10 2021 TIME 18:24:26.4
Thu Oct  7 18:24:26 CEST 2021
Contents of temporary directory:
total 160
-rw-r--r-- 1 juanjo juanjo  13752 Oct  7 18:24 fort.11
-rw-r--r-- 1 juanjo juanjo  24360 Oct  7 18:24 fort.13
-rw-r--r-- 1 juanjo juanjo  13752 Oct  7 18:24 fort.3
-rwxr-xr-x 1 juanjo juanjo 105348 Oct  7 18:24 fort.9
file fort.13 saved as /mnt/c/crystal/utils17/base.f13
output of Crgra in file /mnt/c/crystal/utils17/base.outpg
