date Mon Oct 24 15:14:09 CEST 2022
master hostname LAPTOP-9E8C2KDB
system Linux LAPTOP-9E8C2KDB 4.4.0-19041-Microsoft #1237-Microsoft Sat Sep 11 14:32:00 PST 2021 x86_64 x86_64 x86_64 GNU/Linux
user antonio
output data in /mnt/c/Users/garci/Documents/PhD/Contenido/Crystal/utils17/MoS2_base.outp
properties in /home/antonio/CRY2K17_ROOT/bin/Linux-ifort14_XE_emt64/std
input data in /mnt/c/Users/garci/Documents/PhD/Contenido/Crystal/utils17/ej1/MoS2_base.d3
temporary directory /home/antonio/tmp/tmp_p360_antonio
wave function data from /mnt/c/Users/garci/Documents/PhD/Contenido/Crystal/utils17/ej1/MoS2.f9
BASISSET            
2                  
60 50             
64 50              
END

         
 *******************************************************************************
 *                                                                             *
 *                               CRYSTAL17                                     *
 *                      public : 1.0.2 - March 1st, 2018                       *
 *                       HTTP://WWW.CRYSTAL.UNITO.IT                           *
 *                                                                             *
 *                              MAIN AUTHORS                                   *
 *                                                                             *
 *  R. DOVESI(1,11), V.R. SAUNDERS(2), C. ROETTI(1,11), R. ORLANDO(1,11),      *
 *  C.M. ZICOVICH-WILSON(1,3), F. PASCALE(4), B. CIVALLERI(1,11),              *
 *  K. DOLL(5), N.M. HARRISON(2,6), I.J. BUSH(7), Ph. D'ARCO(8),               *
 *  M. LLUNELL(9), M. CAUSA'(10), Y. NOEL(8), L. MASCHIO(1,11), A. ERBA(1,11)  *
 *  M. RE'RAT(14), S. CASASSA(1,11)                                            *
 *                                                                             *
 *        CONTRIBUTIONS TO THE CODE HAVE ALSO BEEN GIVEN BY                    *
 *                                                                             *
 *  M. FERRABONE(1,11), M. DE LA PIERRE(1,11), M. FERRERO(1,11),               *
 *  J. BAIMA(1,11), E. ALBANESE(1,11), M.F. PEINTINGER(12), R. BAST(13),       *
 *  B. KIRTMAN(15), V. LACIVITA(1,11), R. DEMICHELIS(1,16)                     *
 *  G. BRANDEBURG(17), S. SALUSTRO(1,11), G. SANSONE(1,11)                     *
 *  M.T. RUGGIERO(18)                                                          *
 *                                                                             *
 * (1) THEORETICAL CHEMISTRY GROUP - UNIVERSITA' DI TORINO - TORINO (ITALY)    *
 * (2) COMPUTATIONAL SCIENCE & ENGINEERING DEPARTMENT - STFC DARESBURY (UK)    *
 * (3) UNIVERSIDAD AUTONOMA DEL ESTADO DE MORELOS - CUERNAVACA (MEXICO)        *
 * (4) UNIVERSITE' DE LORRAINE - NANCY (FRANCE)                                *
 * (5) UNIVERSITAET STUTTGART- STUTTGART (GERMANY)                             *
 * (6) IMPERIAL COLLEGE - LONDON (UK)                                          *
 * (7) OXFORD E-RESEARCH CENTRE - OXFORD (UK)                                  *
 * (8) UPMC - SORBONNE UNIVERSITES - PARIS (FRANCE)                            *
 * (9) UNIVERSIDAD DE BARCELONA - BARCELONA (SPAIN)                            *
 *(10) UNIVERSITA' DI NAPOLI "FEDERICO II" - NAPOLI (ITALY)                    *
 *(11) NIS - NANOSTRUCTURED INTERFACES AND SURFACES - TORINO (ITALY)           *
 *(12) MPI FUER CHEMISCHE ENERGIEKONVERSION - MUELHEIM AN DER RUHR (GERMANY)   *
 *(13) UNIVERSITY OF TROMSO - TROMSO (NORWAY)                                  *
 *(14) UNIVERSITE' DE PAU ET DES PAYS DE L'ADOUR - PAU (FRANCE)                *
 *(15) UNIVERSITY OF CALIFORNIA SANTA BARBARA - SANTA BARBARA (USA)            *
 *(16) CURTIN UNIVERSITY - PERTH (AUSTRALIA)                                   *
 *(17) UNIVERSITY COLLEGE LONDON - LONDON (UK)                                 *
 *(18) CAMBRIDGE UNIVERSITY - CAMBRIDGE (UK)                                   *
 *                                                                             *
 *******************************************************************************
 EEEEEEEEEE STARTING  DATE 24 10 2022 TIME 15:14:09.8

 *******************************************************************************
 MoS2_1L_No_sigmaH                                                               
 CRYSTAL - PROPERTIES - TYPE OF CALCULATION :  RESTRICTED CLOSED SHELL
 *******************************************************************************
 KOHN-SHAM HAMILTONIAN

 (EXCHANGE)[CORRELATION] FUNCTIONAL:(HSE06 SR/GGA)[PERDEW-BURKE-ERNZERHOF]

 RANGE-SEPARATED HYBRID FUNCTIONAL 
 OMEGA (SHORT-RANGE)[LONG-RANGE]:(    0.1100)[    0.0000]

 HYBRID EXCHANGE - PERCENTAGE OF FOCK EXCHANGE    25.0000

 DIRECT LATTICE VECTOR COMPONENTS (ANGSTROM)
         2.76262   -1.59500    0.00000
         0.00000    3.19000    0.00000
         0.00000    0.00000  500.00000

 LATTICE PARAMETERS  (ANGSTROM AND DEGREES) - PRIMITIVE CELL
       A          B          C         ALPHA      BETA     GAMMA        VOLUME
    3.19000    3.19000  500.00000     90.0000   90.0000  120.0000       8.81276
 *******************************************************************************
 N. OF ATOMS PER CELL         3 COULOMB OVERLAP TOL          (T1) 10**   -8
 NUMBER OF SHELLS            31 COULOMB PENETRATION TOL      (T2) 10**   -8
 NUMBER OF AO                79 EXCHANGE OVERLAP TOL         (T3) 10**   -8
 N. OF ELECTRONS PER CELL    46 EXCHANGE PSEUDO OVP (F(G))   (T4) 10**   -8
 CORE ELECTRONS PER CELL     20 EXCHANGE PSEUDO OVP (P(G))   (T5) 10**  -16
 N. OF SYMMETRY OPERATORS     6 POLE ORDER IN MONO ZONE                   4
 CORE  PSEUDO POTENTIAL         TOL. ON PSEUDO              (TP) 10**- 6
 *******************************************************************************
   ATOM N.AT.  SHELL    X(A)      Y(A)      Z(A)      EXAD       N.ELECT.
 *******************************************************************************
    1   16 S    10    -0.921    -1.595     1.565   4.107E-01      16.198
    2   16 S    10    -0.921    -1.595    -1.565   4.107E-01      16.198
    3  242 MO   11    -1.842     0.000     0.000   5.591E-01      13.605
 *******************************************************************************
 DE(K)                   0.000E+00  ENERGY LEVEL SHIFTING        0.60000
 TOTAL ENERGY -8.6413319726830E+02  CONVERGENCE ON ENER       -8.738E-08
 KIN. ENERGY   8.2039060988002E+02  VIR. COEFF.           1.00104977E+00
 N. OF SCF CYCLES               85  FERMI ENERGY              -0.830E+00
 WEIGHT OF F(I) IN F(I+1)      95
 SHRINK. FACT.(MONKH.)    16 16  1  SHRINKING FACTOR(GILAT NET)       16
 NUMBER OF K POINTS IN THE IBZ  30  CELL VOLUME (A.U.)         31.470942
 *******************************************************************************

 GCALCO - MAX INDICES DIRECT LATTICE VECTOR    83    83     0
 NO.OF VECTORS CREATED 6999 STARS  503 RMAX   265.03637 BOHR
 TTTTTTTTTTTTTTTTTTTTTTTTTTTTTT gordsh1     TELAPSE        0.00 TCPU        0.00

 MATRIX SIZE: P(G)  100177, F(G)   24951, P(G) IRR   13150, F(G) IRR    7463
 MAX G-VECTOR INDEX FOR 1- AND 2-ELECTRON INTEGRALS  61


 CAPPA:IS1 16;IS2 16;IS3  1; K PTS MONK NET  30; SYMMOPS:K SPACE  12;G SPACE   6


 *******************************************************************************
 MoS2_1L_No_sigmaH                                                               
 CRYSTAL - PROPERTIES - TYPE OF CALCULATION :  RESTRICTED CLOSED SHELL
 *******************************************************************************
 KOHN-SHAM HAMILTONIAN

 (EXCHANGE)[CORRELATION] FUNCTIONAL:(HSE06 SR/GGA)[PERDEW-BURKE-ERNZERHOF]

 RANGE-SEPARATED HYBRID FUNCTIONAL 
 OMEGA (SHORT-RANGE)[LONG-RANGE]:(    0.1100)[    0.0000]

 HYBRID EXCHANGE - PERCENTAGE OF FOCK EXCHANGE    25.0000

 DIRECT LATTICE VECTOR COMPONENTS (ANGSTROM)
         2.76262   -1.59500    0.00000
         0.00000    3.19000    0.00000
         0.00000    0.00000  500.00000

 LATTICE PARAMETERS  (ANGSTROM AND DEGREES) - PRIMITIVE CELL
       A          B          C         ALPHA      BETA     GAMMA        VOLUME
    3.19000    3.19000  500.00000     90.0000   90.0000  120.0000       8.81276
 *******************************************************************************
 N. OF ATOMS PER CELL         3 COULOMB OVERLAP TOL          (T1) 10**   -8
 NUMBER OF SHELLS            31 COULOMB PENETRATION TOL      (T2) 10**   -8
 NUMBER OF AO                79 EXCHANGE OVERLAP TOL         (T3) 10**   -8
 N. OF ELECTRONS PER CELL    46 EXCHANGE PSEUDO OVP (F(G))   (T4) 10**   -8
 CORE ELECTRONS PER CELL     20 EXCHANGE PSEUDO OVP (P(G))   (T5) 10**  -16
 N. OF SYMMETRY OPERATORS     6 POLE ORDER IN MONO ZONE                   4
 CORE  PSEUDO POTENTIAL         TOL. ON PSEUDO              (TP) 10**- 6
 *******************************************************************************
   ATOM N.AT.  SHELL    X(A)      Y(A)      Z(A)      EXAD       N.ELECT.
 *******************************************************************************
    1   16 S    10    -0.921    -1.595     1.565   4.107E-01      16.198
    2   16 S    10    -0.921    -1.595    -1.565   4.107E-01      16.198
    3  242 MO   11    -1.842     0.000     0.000   5.591E-01      13.605
 *******************************************************************************
 DE(K)                   0.000E+00  ENERGY LEVEL SHIFTING        0.60000
 TOTAL ENERGY -8.6413319726830E+02  CONVERGENCE ON ENER       -8.738E-08
 KIN. ENERGY   8.2039060988002E+02  VIR. COEFF.           1.00104977E+00
 N. OF SCF CYCLES               85  FERMI ENERGY              -0.143E+01
 WEIGHT OF F(I) IN F(I+1)      95
 SHRINK. FACT.(MONKH.)    16 16  1  SHRINKING FACTOR(GILAT NET)       16
 NUMBER OF K POINTS IN THE IBZ  30  CELL VOLUME (A.U.)         31.470942
 *******************************************************************************

 *******************************************************************************
 LOCAL ATOMIC FUNCTIONS BASIS SET
 *******************************************************************************
   ATOM   X(AU)   Y(AU)   Z(AU)  N. TYPE  EXPONENT  S COEF   P COEF   D/F/G COEF
 *******************************************************************************
   1 S   -1.740  -3.014   2.957
                                  1 S  
                                         6.070E+04 3.511E+00 0.000E+00 0.000E+00
                                         9.103E+03 6.543E+00 0.000E+00 0.000E+00
                                         2.071E+03 1.108E+01 0.000E+00 0.000E+00
                                         5.860E+02 1.683E+01 0.000E+00 0.000E+00
                                         1.906E+02 2.111E+01 0.000E+00 0.000E+00
                                         6.763E+01 1.828E+01 0.000E+00 0.000E+00
                                         2.513E+01 6.788E+00 0.000E+00 0.000E+00
                                  2 S  
                                         1.126E+02 6.018E+00 0.000E+00 0.000E+00
                                         3.480E+01 1.078E+01 0.000E+00 0.000E+00
                                         6.512E+00-8.538E+00 0.000E+00 0.000E+00
                                  3 S  
                                         3.240E+00 2.825E+00 0.000E+00 0.000E+00
                                         1.548E+00 8.348E-01 0.000E+00 0.000E+00
                                  4 S  
                                         4.487E-01 9.503E-01 0.000E+00 0.000E+00
                                  5 S  
                                         1.553E-01 4.289E-01 0.000E+00 0.000E+00
                           6-     8 P  
                                         5.644E+02 0.000E+00 3.327E+01 0.000E+00
                                         1.334E+02 0.000E+00 4.352E+01 0.000E+00
                                         4.247E+01 0.000E+00 4.758E+01 0.000E+00
                                         1.562E+01 0.000E+00 3.892E+01 0.000E+00
                                         6.109E+00 0.000E+00 2.039E+01 0.000E+00
                           9-    11 P  
                                         2.036E+00 0.000E+00 8.431E+00 0.000E+00
                          12-    14 P  
                                         4.338E-01 0.000E+00 1.220E+00 0.000E+00
                          15-    17 P  
                                         1.305E-01 0.000E+00 2.719E-01 0.000E+00
                          18-    22 D  
                                         4.107E-01 0.000E+00 0.000E+00 8.434E-01
   2 S   -1.740  -3.014  -2.957
   3 MO  -3.480   0.000   0.000
                                 45 S  
                                         1.400E+01-2.606E+01 0.000E+00 0.000E+00
                                         1.250E+01 3.528E+01 0.000E+00 0.000E+00
                                 46 S  
                                         4.251E+00 5.131E+00 0.000E+00 0.000E+00
                                 47 S  
                                         6.515E-01 1.257E+00 0.000E+00 0.000E+00
                                 48 S  
                                         1.812E-01 4.814E-01 0.000E+00 0.000E+00
                          49-    51 P  
                                         8.893E+00 0.000E+00 4.419E+00 0.000E+00
                                         5.469E+00 0.000E+00-8.096E+00 0.000E+00
                                         1.355E+00 0.000E+00 2.783E+00 0.000E+00
                                         6.549E-01 0.000E+00 1.182E+00 0.000E+00
                          52-    54 P  
                                         4.635E-01 0.000E+00 1.326E+00 0.000E+00
                          55-    57 P  
                                         2.499E-01 0.000E+00 6.124E-01 0.000E+00
                          58-    62 D  
                                         5.004E+00 0.000E+00 0.000E+00-2.407E+00
                                         1.774E+00 0.000E+00 0.000E+00 3.805E+00
                                         7.695E-01 0.000E+00 0.000E+00 1.841E+00
                          63-    67 D  
                                         5.602E-01 0.000E+00 0.000E+00 1.452E+00
                          68-    72 D  
                                         2.049E-01 0.000E+00 0.000E+00 2.497E-01
                          73-    79 F  
                                         5.591E-01 0.000E+00 0.000E+00 9.679E-01

 OVERLAP MATRIX - CELL N.   1(  0  0  0)

              1           2           3           4           5           6           7           8           9          10

   1     1.0000E+00
   2    -1.1047E-01  1.0000E+00
   3     2.9623E-01 -8.6153E-01  1.0000E+00
   4     8.4395E-02 -3.6544E-01  6.2157E-01  1.0000E+00
   5     3.8552E-02 -1.7719E-01  3.3401E-01  8.1728E-01  1.0000E+00
   6     0.0000E+00  0.0000E+00  0.0000E+00  0.0000E+00  0.0000E+00  1.0000E+00
   7     0.0000E+00  0.0000E+00  0.0000E+00  0.0000E+00  0.0000E+00  0.0000E+00  1.0000E+00
   8     0.0000E+00  0.0000E+00  0.0000E+00  0.0000E+00  0.0000E+00  0.0000E+00  0.0000E+00  1.0000E+00
   9     0.0000E+00  0.0000E+00  0.0000E+00  0.0000E+00  0.0000E+00  5.6033E-01  0.0000E+00  0.0000E+00  1.0000E+00
  10     0.0000E+00  0.0000E+00  0.0000E+00  0.0000E+00  0.0000E+00  0.0000E+00  5.6033E-01  0.0000E+00  0.0000E+00  1.0000E+00
  11     0.0000E+00  0.0000E+00  0.0000E+00  0.0000E+00  0.0000E+00  0.0000E+00  0.0000E+00  5.6033E-01  0.0000E+00  0.0000E+00
  12     0.0000E+00  0.0000E+00  0.0000E+00  0.0000E+00  0.0000E+00  1.3099E-01  0.0000E+00  0.0000E+00  5.0525E-01  0.0000E+00
  13     0.0000E+00  0.0000E+00  0.0000E+00  0.0000E+00  0.0000E+00  0.0000E+00  1.3099E-01  0.0000E+00  0.0000E+00  5.0525E-01
  14     0.0000E+00  0.0000E+00  0.0000E+00  0.0000E+00  0.0000E+00  0.0000E+00  0.0000E+00  1.3099E-01  0.0000E+00  0.0000E+00
  15     0.0000E+00  0.0000E+00  0.0000E+00  0.0000E+00  0.0000E+00  3.2430E-02  0.0000E+00  0.0000E+00  1.5620E-01  0.0000E+00
  16     0.0000E+00  0.0000E+00  0.0000E+00  0.0000E+00  0.0000E+00  0.0000E+00  3.2430E-02  0.0000E+00  0.0000E+00  1.5620E-01
  17     0.0000E+00  0.0000E+00  0.0000E+00  0.0000E+00  0.0000E+00  0.0000E+00  0.0000E+00  3.2430E-02  0.0000E+00  0.0000E+00
  18     0.0000E+00  0.0000E+00  0.0000E+00  0.0000E+00  0.0000E+00  0.0000E+00  0.0000E+00  0.0000E+00  0.0000E+00  0.0000E+00
  19     0.0000E+00  0.0000E+00  0.0000E+00  0.0000E+00  0.0000E+00  0.0000E+00  0.0000E+00  0.0000E+00  0.0000E+00  0.0000E+00
  20     0.0000E+00  0.0000E+00  0.0000E+00  0.0000E+00  0.0000E+00  0.0000E+00  0.0000E+00  0.0000E+00  0.0000E+00  0.0000E+00
  21     0.0000E+00  0.0000E+00  0.0000E+00  0.0000E+00  0.0000E+00  0.0000E+00  0.0000E+00  0.0000E+00  0.0000E+00  0.0000E+00
  22     0.0000E+00  0.0000E+00  0.0000E+00  0.0000E+00  0.0000E+00  0.0000E+00  0.0000E+00  0.0000E+00  0.0000E+00  0.0000E+00
  23     0.0000E+00  0.0000E+00  0.0000E+00  1.5604E-08  1.7215E-04  0.0000E+00  0.0000E+00  0.0000E+00  0.0000E+00  0.0000E+00
  24     0.0000E+00  0.0000E+00  0.0000E+00 -1.6474E-07 -8.8851E-04  0.0000E+00  0.0000E+00  0.0000E+00  0.0000E+00  0.0000E+00
  25     0.0000E+00  0.0000E+00  0.0000E+00  1.7381E-06  2.1060E-03  0.0000E+00  0.0000E+00  0.0000E+00  0.0000E+00  0.0000E+00
  26     1.5604E-08 -1.6474E-07  1.7381E-06  3.8993E-04  1.4422E-02  0.0000E+00  0.0000E+00 -2.1845E-07  0.0000E+00  0.0000E+00
  27     1.7215E-04 -8.8851E-04  2.1060E-03  1.4422E-02  6.6045E-02  0.0000E+00  0.0000E+00 -4.5852E-04  0.0000E+00  0.0000E+00
  28     0.0000E+00  0.0000E+00  0.0000E+00  0.0000E+00  0.0000E+00  0.0000E+00  0.0000E+00  0.0000E+00  0.0000E+00  0.0000E+00
  29     0.0000E+00  0.0000E+00  0.0000E+00  0.0000E+00  0.0000E+00  0.0000E+00  0.0000E+00  0.0000E+00  0.0000E+00  0.0000E+00
  30     0.0000E+00  0.0000E+00  0.0000E+00  2.1845E-07  4.5852E-04  0.0000E+00  0.0000E+00  0.0000E+00  0.0000E+00  0.0000E+00
  31     0.0000E+00  0.0000E+00  0.0000E+00  0.0000E+00  0.0000E+00  0.0000E+00  0.0000E+00  0.0000E+00  0.0000E+00  0.0000E+00
  32     0.0000E+00  0.0000E+00  0.0000E+00  0.0000E+00  0.0000E+00  0.0000E+00  0.0000E+00  0.0000E+00  0.0000E+00  0.0000E+00
  33     0.0000E+00  0.0000E+00  0.0000E+00  5.3283E-06  2.8217E-03  0.0000E+00  0.0000E+00  0.0000E+00  0.0000E+00  0.0000E+00
  34     0.0000E+00  0.0000E+00  0.0000E+00  0.0000E+00  0.0000E+00  8.4080E-08  0.0000E+00  0.0000E+00  1.8627E-06  0.0000E+00
  35     0.0000E+00  0.0000E+00  0.0000E+00  0.0000E+00  0.0000E+00  0.0000E+00  8.4080E-08  0.0000E+00  0.0000E+00  1.8627E-06
  36     1.9499E-07 -1.8504E-06  1.4997E-05  1.7639E-03  3.1075E-02  0.0000E+00  0.0000E+00 -2.3100E-06  0.0000E+00  0.0000E+00
  37     0.0000E+00  0.0000E+00  0.0000E+00  0.0000E+00  0.0000E+00  3.6745E-04  0.0000E+00  0.0000E+00  2.1394E-03  0.0000E+00
  38     0.0000E+00  0.0000E+00  0.0000E+00  0.0000E+00  0.0000E+00  0.0000E+00  3.6745E-04  0.0000E+00  0.0000E+00  2.1394E-03
  39     1.5251E-03 -7.5124E-03  1.6207E-02  7.3584E-02  1.9315E-01  0.0000E+00  0.0000E+00 -2.9249E-03  0.0000E+00  0.0000E+00
  40     1.7363E-06 -1.4511E-05  8.7541E-05  4.9850E-03  4.0845E-02  0.0000E+00  0.0000E+00 -1.6687E-05  0.0000E+00  0.0000E+00
  41     0.0000E+00  0.0000E+00  0.0000E+00  0.0000E+00  0.0000E+00  1.1534E-06  0.0000E+00  0.0000E+00  1.9555E-05  0.0000E+00
  42     0.0000E+00  0.0000E+00  0.0000E+00  0.0000E+00  0.0000E+00  0.0000E+00  1.1534E-06  0.0000E+00  0.0000E+00  1.9555E-05
  43     0.0000E+00  0.0000E+00  0.0000E+00  0.0000E+00  0.0000E+00  0.0000E+00  0.0000E+00  0.0000E+00  0.0000E+00  0.0000E+00
  44     0.0000E+00  0.0000E+00  0.0000E+00  0.0000E+00  0.0000E+00  0.0000E+00  0.0000E+00  0.0000E+00  0.0000E+00  0.0000E+00
  45     0.0000E+00  0.0000E+00  0.0000E+00  3.1783E-05  4.8754E-03  0.0000E+00  0.0000E+00  0.0000E+00  0.0000E+00  0.0000E+00
  46     0.0000E+00  0.0000E+00  0.0000E+00  9.4810E-05  9.8315E-03  0.0000E+00  0.0000E+00  0.0000E+00  0.0000E+00  0.0000E+00
  47     1.7741E-07 -2.1672E-06  2.6571E-05  3.8155E-03  5.1158E-02 -1.1819E-06  2.0471E-06 -2.0086E-06 -3.2272E-05  5.5896E-05
  48     1.0052E-03 -5.0478E-03  1.1285E-02  5.8316E-02  1.7391E-01 -8.9456E-04  1.5494E-03 -1.5203E-03 -5.1164E-03  8.8619E-03
  49     2.6568E-07 -3.0257E-06  3.0541E-05  2.8811E-03  2.1410E-02 -1.2024E-06  2.8821E-06 -2.8279E-06 -2.5721E-05  6.6775E-05
  50    -4.6017E-07  5.2407E-06 -5.2898E-05 -4.9902E-03 -3.7083E-02  2.8821E-06 -4.5303E-06  4.8980E-06  6.6775E-05 -1.0283E-04
  51     4.5151E-07 -5.1421E-06  5.1904E-05  4.8963E-03  3.6386E-02 -2.8279E-06  4.8980E-06 -4.3443E-06 -6.5519E-05  1.1348E-04
  52     1.4475E-05 -1.0440E-04  4.4710E-04  1.0023E-02  4.2417E-02 -2.6826E-05  7.5057E-05 -7.3645E-05 -2.6046E-04  8.0176E-04
  53    -2.5071E-05  1.8083E-04 -7.7441E-04 -1.7361E-02 -7.3468E-02  7.5057E-05 -1.1349E-04  1.2756E-04  8.0176E-04 -1.1862E-03
  54     2.4599E-05 -1.7743E-04  7.5984E-04  1.7034E-02  7.2086E-02 -7.3645E-05  1.2756E-04 -1.0865E-04 -7.8668E-04  1.3626E-03
  55     5.3533E-04 -2.7800E-03  6.5602E-03  3.6874E-02  8.6711E-02 -2.1078E-04  1.1590E-03 -1.1372E-03 -1.0313E-03  6.9201E-03
  56    -9.2721E-04  4.8150E-03 -1.1363E-02 -6.3868E-02 -1.5019E-01  1.1590E-03 -1.5491E-03  1.9697E-03  6.9201E-03 -9.0220E-03
  57     9.0977E-04 -4.7245E-03  1.1149E-02  6.2666E-02  1.4736E-01 -1.1372E-03  1.9697E-03 -1.4743E-03 -6.7899E-03  1.1761E-02
  58     6.2606E-08 -9.0780E-07  1.3370E-05  1.2733E-03  4.7794E-03 -7.2458E-07  1.2550E-06 -4.4524E-07 -2.4478E-05  4.2397E-05
  59     2.0748E-07 -3.0085E-06  4.4309E-05  4.2196E-03  1.5839E-02 -1.4364E-06  3.2740E-06 -2.9454E-06 -4.2872E-05  1.0542E-04
  60    -3.5937E-07  5.2109E-06 -7.6745E-05 -7.3086E-03 -2.7434E-02  3.2740E-06 -5.2169E-06  5.1016E-06  1.0542E-04 -1.6460E-04
  61    -1.2209E-07  1.7703E-06 -2.6072E-05 -2.4829E-03 -9.3201E-03  1.3793E-06 -1.4639E-06  1.8903E-06  4.6401E-05 -4.3694E-05
  62    -2.1146E-07  3.0662E-06 -4.5158E-05 -4.3005E-03 -1.6143E-02  1.4639E-06 -3.0697E-06  3.2740E-06  4.3694E-05 -9.6854E-05
  63     3.3723E-06 -2.8032E-05  1.4954E-04  3.7723E-03  9.7137E-03 -1.8598E-05  3.2213E-05 -6.5146E-06 -2.5502E-04  4.4170E-04
  64     1.1176E-05 -9.2899E-05  4.9558E-04  1.2502E-02  3.2192E-02 -3.0837E-05  7.8504E-05 -6.8503E-05 -3.7069E-04  1.0286E-03
  65    -1.9357E-05  1.6091E-04 -8.5837E-04 -2.1653E-02 -5.5758E-02  7.8504E-05 -1.2149E-04  1.1865E-04  1.0286E-03 -1.5584E-03
  66    -6.5761E-06  5.4663E-05 -2.9161E-04 -7.3562E-03 -1.8942E-02  3.5194E-05 -3.1429E-05  4.5324E-05  4.8077E-04 -3.7779E-04
  67    -1.1390E-05  9.4680E-05 -5.0508E-04 -1.2741E-02 -3.2809E-02  3.1429E-05 -7.1485E-05  7.8504E-05  3.7779E-04 -9.1700E-04
  68     8.5042E-04 -4.1190E-03  8.5157E-03  2.8511E-02  3.6946E-02 -1.6002E-03  2.7717E-03  1.2218E-03 -8.5922E-03  1.4882E-02
  69     2.8183E-03 -1.3651E-02  2.8221E-02  9.4489E-02  1.2244E-01 -4.6581E-04  4.7481E-03 -3.3199E-03 -1.6093E-03  2.4676E-02
  70    -4.8815E-03  2.3644E-02 -4.8881E-02 -1.6366E-01 -2.1207E-01  4.7481E-03 -5.9485E-03  5.7502E-03  2.4676E-02 -3.0103E-02
  71    -1.6584E-03  8.0323E-03 -1.6606E-02 -5.5599E-02 -7.2047E-02  2.9520E-03 -4.7473E-04  2.7413E-03  1.5819E-02 -1.6401E-03
  72    -2.8724E-03  1.3912E-02 -2.8762E-02 -9.6300E-02 -1.2479E-01  4.7473E-04 -3.5002E-03  4.7481E-03  1.6401E-03 -1.7713E-02
  73    -2.3447E-05  1.8098E-04 -8.1038E-04 -1.1697E-02 -1.4681E-02  6.1363E-05 -1.0628E-04  1.6515E-04  6.2742E-04 -1.0867E-03
  74     2.0506E-05 -1.5828E-04  7.0875E-04  1.0230E-02  1.2839E-02 -5.9354E-05  1.4584E-04 -8.7188E-05 -6.2293E-04  1.6405E-03
  75    -3.5518E-05  2.7415E-04 -1.2276E-03 -1.7719E-02 -2.2239E-02  1.4584E-04 -2.2776E-04  1.5101E-04  1.6405E-03 -2.5172E-03
  76    -2.9183E-05  2.2525E-04 -1.0086E-03 -1.4558E-02 -1.8272E-02  1.4582E-04 -1.3008E-04  1.6692E-04  1.6870E-03 -1.3239E-03
  77    -5.0546E-05  3.9015E-04 -1.7470E-03 -2.5216E-02 -3.1648E-02  1.3008E-04 -2.9603E-04  2.8912E-04  1.3239E-03 -3.2157E-03
  78    -2.8041E-05  2.1644E-04 -9.6916E-04 -1.3989E-02 -1.7557E-02  8.0659E-05 -1.3971E-04  1.8039E-04  8.4525E-04 -1.4640E-03
  79     9.8928E-22 -5.2985E-20  1.2268E-19  0.0000E+00  0.0000E+00 -4.4138E-05 -2.5483E-05 -2.6367E-20 -5.7586E-04 -3.3247E-04

             11          12          13          14          15          16          17          18          19          20

  11     1.0000E+00
  12     0.0000E+00  1.0000E+00
  13     0.0000E+00  0.0000E+00  1.0000E+00
  14     5.0525E-01  0.0000E+00  0.0000E+00  1.0000E+00
  15     0.0000E+00  6.5303E-01  0.0000E+00  0.0000E+00  1.0000E+00
  16     0.0000E+00  0.0000E+00  6.5303E-01  0.0000E+00  0.0000E+00  1.0000E+00
  17     1.5620E-01  0.0000E+00  0.0000E+00  6.5303E-01  0.0000E+00  0.0000E+00  1.0000E+00
  18     0.0000E+00  0.0000E+00  0.0000E+00  0.0000E+00  0.0000E+00  0.0000E+00  0.0000E+00  1.0000E+00
  19     0.0000E+00  0.0000E+00  0.0000E+00  0.0000E+00  0.0000E+00  0.0000E+00  0.0000E+00  0.0000E+00  1.0000E+00
  20     0.0000E+00  0.0000E+00  0.0000E+00  0.0000E+00  0.0000E+00  0.0000E+00  0.0000E+00  0.0000E+00  0.0000E+00  1.0000E+00
  21     0.0000E+00  0.0000E+00  0.0000E+00  0.0000E+00  0.0000E+00  0.0000E+00  0.0000E+00  0.0000E+00  0.0000E+00  0.0000E+00
  22     0.0000E+00  0.0000E+00  0.0000E+00  0.0000E+00  0.0000E+00  0.0000E+00  0.0000E+00  0.0000E+00  0.0000E+00  0.0000E+00
  23     0.0000E+00  0.0000E+00  0.0000E+00 -1.9499E-07  0.0000E+00  0.0000E+00 -1.5251E-03  1.7363E-06  0.0000E+00  0.0000E+00
  24     0.0000E+00  0.0000E+00  0.0000E+00  1.8504E-06  0.0000E+00  0.0000E+00  7.5124E-03 -1.4511E-05  0.0000E+00  0.0000E+00
  25     0.0000E+00  0.0000E+00  0.0000E+00 -1.4997E-05  0.0000E+00  0.0000E+00 -1.6207E-02  8.7541E-05  0.0000E+00  0.0000E+00
  26    -5.3283E-06  0.0000E+00  0.0000E+00 -1.7639E-03  0.0000E+00  0.0000E+00 -7.3584E-02  4.9850E-03  0.0000E+00  0.0000E+00
  27    -2.8217E-03  0.0000E+00  0.0000E+00 -3.1075E-02  0.0000E+00  0.0000E+00 -1.9315E-01  4.0845E-02  0.0000E+00  0.0000E+00
  28     0.0000E+00  8.4080E-08  0.0000E+00  0.0000E+00  3.6745E-04  0.0000E+00  0.0000E+00  0.0000E+00 -1.1534E-06  0.0000E+00
  29     0.0000E+00  0.0000E+00  8.4080E-08  0.0000E+00  0.0000E+00  3.6745E-04  0.0000E+00  0.0000E+00  0.0000E+00 -1.1534E-06
  30     0.0000E+00  0.0000E+00  0.0000E+00 -2.3100E-06  0.0000E+00  0.0000E+00 -2.9249E-03  1.6687E-05  0.0000E+00  0.0000E+00
  31     0.0000E+00  1.8627E-06  0.0000E+00  0.0000E+00  2.1394E-03  0.0000E+00  0.0000E+00  0.0000E+00 -1.9555E-05  0.0000E+00
  32     0.0000E+00  0.0000E+00  1.8627E-06  0.0000E+00  0.0000E+00  2.1394E-03  0.0000E+00  0.0000E+00  0.0000E+00 -1.9555E-05
  33     0.0000E+00  0.0000E+00  0.0000E+00 -4.4746E-05  0.0000E+00  0.0000E+00 -1.6219E-02  2.4741E-04  0.0000E+00  0.0000E+00
  34     0.0000E+00  5.0639E-04  0.0000E+00  0.0000E+00  1.9528E-02  0.0000E+00  0.0000E+00  0.0000E+00 -2.4245E-03  0.0000E+00
  35     0.0000E+00  0.0000E+00  5.0639E-04  0.0000E+00  0.0000E+00  1.9528E-02  0.0000E+00  0.0000E+00  0.0000E+00 -2.4245E-03
  36    -4.4746E-05  0.0000E+00  0.0000E+00 -7.1788E-03  0.0000E+00  0.0000E+00 -1.1755E-01  1.7863E-02  0.0000E+00  0.0000E+00
  37     0.0000E+00  1.9528E-02  0.0000E+00  0.0000E+00  1.0200E-01  0.0000E+00  0.0000E+00  0.0000E+00 -3.8716E-02  0.0000E+00
  38     0.0000E+00  0.0000E+00  1.9528E-02  0.0000E+00  0.0000E+00  1.0200E-01  0.0000E+00  0.0000E+00  0.0000E+00 -3.8716E-02
  39    -1.6219E-02  0.0000E+00  0.0000E+00 -1.1755E-01  0.0000E+00  0.0000E+00 -3.6368E-01  1.1019E-01  0.0000E+00  0.0000E+00
  40    -2.4741E-04  0.0000E+00  0.0000E+00 -1.7863E-02  0.0000E+00  0.0000E+00 -1.1019E-01  3.8422E-02  0.0000E+00  0.0000E+00
  41     0.0000E+00  2.4245E-03  0.0000E+00  0.0000E+00  3.8716E-02  0.0000E+00  0.0000E+00  0.0000E+00 -1.0139E-02  0.0000E+00
  42     0.0000E+00  0.0000E+00  2.4245E-03  0.0000E+00  0.0000E+00  3.8716E-02  0.0000E+00  0.0000E+00  0.0000E+00 -1.0139E-02
  43     0.0000E+00  0.0000E+00  0.0000E+00  0.0000E+00  0.0000E+00  0.0000E+00  0.0000E+00  0.0000E+00  0.0000E+00  0.0000E+00
  44     0.0000E+00  0.0000E+00  0.0000E+00  0.0000E+00  0.0000E+00  0.0000E+00  0.0000E+00  0.0000E+00  0.0000E+00  0.0000E+00
  45     0.0000E+00 -9.1184E-05  1.5793E-04 -1.5496E-04 -8.8312E-03  1.5296E-02 -1.5008E-02  1.4724E-04  4.8797E-04 -8.4519E-04
  46     0.0000E+00 -2.4949E-04  4.3213E-04 -4.2400E-04 -1.7239E-02  2.9859E-02 -2.9297E-02  3.6653E-04  1.2147E-03 -2.1039E-03
  47    -5.4845E-05 -5.8370E-03  1.0110E-02 -9.9198E-03 -6.9836E-02  1.2096E-01 -1.1868E-01  4.8186E-03  1.5969E-02 -2.7659E-02
  48    -8.6952E-03 -4.0876E-02  7.0798E-02 -6.9467E-02 -1.4718E-01  2.5492E-01 -2.5012E-01  1.5363E-02  5.0915E-02 -8.8187E-02
  49    -6.5519E-05 -1.7537E-03  7.8157E-03 -7.6687E-03  1.2649E-02  4.5365E-02 -4.4512E-02  6.5033E-03  4.7049E-03 -2.1875E-02
  50     1.1348E-04  7.8157E-03 -1.0779E-02  1.3283E-02  4.5365E-02 -3.9734E-02  7.7097E-02 -1.1264E-02 -2.1875E-02  2.9965E-02
  51    -9.8516E-05 -7.6687E-03  1.3283E-02 -1.0274E-02 -4.4512E-02  7.7097E-02 -3.6806E-02 -2.6742E-03  1.6801E-02 -2.9100E-02
  52    -7.8668E-04 -3.3289E-03  2.1911E-02 -2.1499E-02  2.8589E-02  7.9683E-02 -7.8185E-02  1.5718E-02  6.7931E-03 -4.8671E-02
  53     1.3626E-03  2.1911E-02 -2.8629E-02  3.7237E-02  7.9683E-02 -6.3421E-02  1.3542E-01 -2.7224E-02 -4.8671E-02  6.2993E-02
  54    -1.1345E-03 -2.1499E-02  3.7237E-02 -2.7215E-02 -7.8185E-02  1.3542E-01 -5.8278E-02 -1.0193E-02  3.5218E-02 -6.0999E-02
  55    -6.7899E-03  1.3249E-03  5.5444E-02 -5.4402E-02  7.0638E-02  1.3213E-01 -1.2964E-01  3.2425E-02 -3.0718E-03 -8.4735E-02
  56     1.1761E-02  5.5444E-02 -6.2697E-02  9.4226E-02  1.3213E-01 -8.1932E-02  2.2455E-01 -5.6162E-02 -8.4735E-02  9.4771E-02
  57    -8.5753E-03 -5.4402E-02  9.4226E-02 -5.9118E-02 -1.2964E-01  2.2455E-01 -7.3404E-02 -3.4949E-02  5.2547E-02 -9.1014E-02
  58    -1.0436E-05 -3.3996E-03  5.8882E-03  1.1215E-03 -1.3573E-02  2.3510E-02  2.0025E-02 -1.6632E-02  1.8317E-03 -3.1726E-03
  59    -9.2850E-05 -2.7988E-03  1.1747E-02 -9.1819E-03  7.9072E-03  2.9397E-02 -1.4204E-02  1.8317E-03  5.9567E-03 -2.6173E-02
  60     1.6082E-04  1.1747E-02 -1.6363E-02  1.5904E-02  2.9397E-02 -2.6037E-02  2.4603E-02 -3.1726E-03 -2.6173E-02  3.6179E-02
  61     6.0864E-05  6.3343E-03 -2.8524E-03  6.7819E-03  2.4626E-02  8.0588E-03  1.6972E-02 -8.0321E-03 -1.8078E-02  7.6743E-03
  62     1.0542E-04  2.8524E-03 -9.6280E-03  1.1747E-02 -8.0588E-03 -1.5321E-02  2.9397E-02 -1.3912E-02 -7.6743E-03  2.6939E-02
  63    -4.6830E-05 -9.0789E-03  1.5725E-02  4.5637E-03 -2.6588E-02  4.6053E-02  4.1190E-02 -4.0340E-02  2.6465E-03 -4.5839E-03
  64    -8.7794E-04 -5.5493E-03  2.9605E-02 -2.2256E-02  1.7900E-02  5.5373E-02 -2.4987E-02  2.6465E-03  9.3621E-03 -5.3470E-02
  65     1.5206E-03  2.9605E-02 -3.9734E-02  3.8548E-02  5.5373E-02 -4.6039E-02  4.3279E-02 -4.5839E-03 -5.3470E-02  7.1104E-02
  66     5.9387E-04  1.6849E-02 -5.6557E-03  1.7092E-02  4.8155E-02  1.8243E-02  3.1969E-02 -1.8557E-02 -4.0620E-02  1.2575E-02
  67     1.0286E-03  5.6557E-03 -2.3380E-02  2.9605E-02 -1.8243E-02 -2.7090E-02  5.5373E-02 -3.2142E-02 -1.2575E-02  5.5141E-02
  68     7.2867E-03 -4.9918E-02  8.6461E-02  6.0717E-02 -9.0017E-02  1.5591E-01  1.6822E-01 -1.4609E-01 -1.0095E-02  1.7485E-02
  69    -1.6776E-02  1.3213E-02  1.2267E-01 -7.0912E-02  9.5907E-02  1.5508E-01 -4.3047E-02 -1.0095E-02 -1.1243E-02 -9.3640E-02
  70     2.9057E-02  1.2267E-01 -1.2843E-01  1.2282E-01  1.5508E-01 -8.3167E-02  7.4560E-02  1.7485E-02 -9.3640E-02  9.6883E-02
  71     1.4247E-02  9.1120E-02  1.3466E-02  7.0821E-02  1.6180E-01  9.7746E-02  8.9537E-02 -6.1380E-02 -1.2074E-01 -1.9697E-02
  72     2.4676E-02 -1.3466E-02 -7.5570E-02  1.2267E-01 -9.7746E-02 -4.8937E-02  1.5508E-01 -1.0631E-01  1.9697E-02  9.7992E-02
  73     1.8604E-03  5.4612E-03 -9.4591E-03  3.1982E-02 -6.3979E-03  1.1081E-02  3.1527E-02 -4.1311E-02 -2.5179E-02  4.3611E-02
  74    -8.8015E-04 -6.8974E-03  2.7998E-02 -6.6189E-03  1.6337E-03  2.7152E-02  1.2308E-02 -2.8420E-02  8.3360E-03 -2.4416E-02
  75     1.5245E-03  2.7998E-02 -3.9227E-02  1.1464E-02  2.7152E-02 -2.9719E-02 -2.1318E-02  4.9224E-02 -2.4416E-02  3.6529E-02
  76     1.8115E-03  3.2700E-02 -1.0952E-02  2.5399E-02  4.0419E-02  1.5325E-02  1.2332E-02 -1.3571E-02 -5.7906E-02  1.7885E-02
  77     3.1377E-03  1.0952E-02 -4.5347E-02  4.3993E-02 -1.5325E-02 -2.2723E-02  2.1360E-02 -2.3506E-02 -1.7885E-02  7.8559E-02
  78     2.0015E-03  9.2441E-03 -1.6011E-02  3.1863E-02 -2.5843E-03  4.4761E-03  2.5778E-02 -4.3753E-02 -2.0614E-02  3.5705E-02
  79    -5.0687E-19 -1.6462E-02 -9.5044E-03  0.0000E+00 -3.0748E-02 -1.7752E-02  1.5732E-17  0.0000E+00  3.9147E-02  2.2601E-02

             21          22          23          24          25          26          27          28          29          30

  21     1.0000E+00
  22     0.0000E+00  1.0000E+00
  23     0.0000E+00  0.0000E+00  1.0000E+00
  24     0.0000E+00  0.0000E+00 -1.1047E-01  1.0000E+00
  25     0.0000E+00  0.0000E+00  2.9623E-01 -8.6153E-01  1.0000E+00
  26     0.0000E+00  0.0000E+00  8.4395E-02 -3.6544E-01  6.2157E-01  1.0000E+00
  27     0.0000E+00  0.0000E+00  3.8552E-02 -1.7719E-01  3.3401E-01  8.1728E-01  1.0000E+00
  28     0.0000E+00  0.0000E+00  0.0000E+00  0.0000E+00  0.0000E+00  0.0000E+00  0.0000E+00  1.0000E+00
  29     0.0000E+00  0.0000E+00  0.0000E+00  0.0000E+00  0.0000E+00  0.0000E+00  0.0000E+00  0.0000E+00  1.0000E+00
  30     0.0000E+00  0.0000E+00  0.0000E+00  0.0000E+00  0.0000E+00  0.0000E+00  0.0000E+00  0.0000E+00  0.0000E+00  1.0000E+00
  31     0.0000E+00  0.0000E+00  0.0000E+00  0.0000E+00  0.0000E+00  0.0000E+00  0.0000E+00  5.6033E-01  0.0000E+00  0.0000E+00
  32     0.0000E+00  0.0000E+00  0.0000E+00  0.0000E+00  0.0000E+00  0.0000E+00  0.0000E+00  0.0000E+00  5.6033E-01  0.0000E+00
  33     0.0000E+00  0.0000E+00  0.0000E+00  0.0000E+00  0.0000E+00  0.0000E+00  0.0000E+00  0.0000E+00  0.0000E+00  5.6033E-01
  34     0.0000E+00  0.0000E+00  0.0000E+00  0.0000E+00  0.0000E+00  0.0000E+00  0.0000E+00  1.3099E-01  0.0000E+00  0.0000E+00
  35     0.0000E+00  0.0000E+00  0.0000E+00  0.0000E+00  0.0000E+00  0.0000E+00  0.0000E+00  0.0000E+00  1.3099E-01  0.0000E+00
  36     0.0000E+00  0.0000E+00  0.0000E+00  0.0000E+00  0.0000E+00  0.0000E+00  0.0000E+00  0.0000E+00  0.0000E+00  1.3099E-01
  37     0.0000E+00  0.0000E+00  0.0000E+00  0.0000E+00  0.0000E+00  0.0000E+00  0.0000E+00  3.2430E-02  0.0000E+00  0.0000E+00
  38     0.0000E+00  0.0000E+00  0.0000E+00  0.0000E+00  0.0000E+00  0.0000E+00  0.0000E+00  0.0000E+00  3.2430E-02  0.0000E+00
  39     0.0000E+00  0.0000E+00  0.0000E+00  0.0000E+00  0.0000E+00  0.0000E+00  0.0000E+00  0.0000E+00  0.0000E+00  3.2430E-02
  40     0.0000E+00  0.0000E+00  0.0000E+00  0.0000E+00  0.0000E+00  0.0000E+00  0.0000E+00  0.0000E+00  0.0000E+00  0.0000E+00
  41     0.0000E+00  0.0000E+00  0.0000E+00  0.0000E+00  0.0000E+00  0.0000E+00  0.0000E+00  0.0000E+00  0.0000E+00  0.0000E+00
  42     0.0000E+00  0.0000E+00  0.0000E+00  0.0000E+00  0.0000E+00  0.0000E+00  0.0000E+00  0.0000E+00  0.0000E+00  0.0000E+00
  43     7.5843E-04  0.0000E+00  0.0000E+00  0.0000E+00  0.0000E+00  0.0000E+00  0.0000E+00  0.0000E+00  0.0000E+00  0.0000E+00
  44     0.0000E+00  7.5843E-04  0.0000E+00  0.0000E+00  0.0000E+00  0.0000E+00  0.0000E+00  0.0000E+00  0.0000E+00  0.0000E+00
  45    -2.8713E-04 -4.9733E-04  0.0000E+00  0.0000E+00  0.0000E+00  3.1783E-05  4.8754E-03  0.0000E+00  0.0000E+00  0.0000E+00
  46    -7.1474E-04 -1.2380E-03  0.0000E+00  0.0000E+00  0.0000E+00  9.4810E-05  9.8315E-03  0.0000E+00  0.0000E+00  0.0000E+00
  47    -9.3966E-03 -1.6275E-02  1.7741E-07 -2.1672E-06  2.6571E-05  3.8155E-03  5.1158E-02 -1.1819E-06  2.0471E-06  2.0086E-06
  48    -2.9959E-02 -5.1891E-02  1.0052E-03 -5.0478E-03  1.1285E-02  5.8316E-02  1.7391E-01 -8.9456E-04  1.5494E-03  1.5203E-03
  49    -1.2095E-02 -4.7951E-03  2.6568E-07 -3.0257E-06  3.0541E-05  2.8811E-03  2.1410E-02 -1.2024E-06  2.8821E-06  2.8279E-06
  50     4.7951E-03  1.7632E-02 -4.6017E-07  5.2407E-06 -5.2898E-05 -4.9902E-03 -3.7083E-02  2.8821E-06 -4.5303E-06 -4.8980E-06
  51    -1.2630E-02 -2.1875E-02 -4.5151E-07  5.1421E-06 -5.1904E-05 -4.8963E-03 -3.6386E-02  2.8279E-06 -4.8980E-06 -4.3443E-06
  52    -2.9072E-02 -6.9233E-03  1.4475E-05 -1.0440E-04  4.4710E-04  1.0023E-02  4.2417E-02 -2.6826E-05  7.5057E-05  7.3645E-05
  53     6.9233E-03  3.7066E-02 -2.5071E-05  1.8083E-04 -7.7441E-04 -1.7361E-02 -7.3468E-02  7.5057E-05 -1.1349E-04 -1.2756E-04
  54    -2.8100E-02 -4.8671E-02 -2.4599E-05  1.7743E-04 -7.5984E-04 -1.7034E-02 -7.2086E-02  7.3645E-05 -1.2756E-04 -1.0865E-04
  55    -5.9380E-02  3.1307E-03  5.3533E-04 -2.7800E-03  6.5602E-03  3.6874E-02  8.6711E-02 -2.1078E-04  1.1590E-03  1.1372E-03
  56    -3.1307E-03  5.5765E-02 -9.2721E-04  4.8150E-03 -1.1363E-02 -6.3868E-02 -1.5019E-01  1.1590E-03 -1.5491E-03 -1.9697E-03
  57    -4.8922E-02 -8.4735E-02 -9.0977E-04  4.7245E-03 -1.1149E-02 -6.2666E-02 -1.4736E-01  1.1372E-03 -1.9697E-03 -1.4743E-03
  58    -8.0321E-03 -1.3912E-02  6.2606E-08 -9.0780E-07  1.3370E-05  1.2733E-03  4.7794E-03 -7.2458E-07  1.2550E-06  4.4524E-07
  59    -1.8078E-02 -7.6743E-03 -2.0748E-07  3.0085E-06 -4.4309E-05 -4.2196E-03 -1.5839E-02  1.4364E-06 -3.2740E-06 -2.9454E-06
  60     7.6743E-03  2.6939E-02  3.5937E-07 -5.2109E-06  7.6745E-05  7.3086E-03  2.7434E-02 -3.2740E-06  5.2169E-06  5.1016E-06
  61    -6.9962E-03  1.1470E-02 -1.2209E-07  1.7703E-06 -2.6072E-05 -2.4829E-03 -9.3201E-03  1.3793E-06 -1.4639E-06 -1.8903E-06
  62     1.1470E-02  6.2482E-03 -2.1146E-07  3.0662E-06 -4.5158E-05 -4.3005E-03 -1.6143E-02  1.4639E-06 -3.0697E-06 -3.2740E-06
  63    -1.8557E-02 -3.2142E-02  3.3723E-06 -2.8032E-05  1.4954E-04  3.7723E-03  9.7137E-03 -1.8598E-05  3.2213E-05  6.5146E-06
  64    -4.0620E-02 -1.2575E-02 -1.1176E-05  9.2899E-05 -4.9558E-04 -1.2502E-02 -3.2192E-02  3.0837E-05 -7.8504E-05 -6.8503E-05
  65     1.2575E-02  5.5141E-02  1.9357E-05 -1.6091E-04  8.5837E-04  2.1653E-02  5.5758E-02 -7.8504E-05  1.2149E-04  1.1865E-04
  66    -1.8334E-02  2.4399E-02 -6.5761E-06  5.4663E-05 -2.9161E-04 -7.3562E-03 -1.8942E-02  3.5194E-05 -3.1429E-05 -4.5324E-05
  67     2.4399E-02  9.8397E-03 -1.1390E-05  9.4680E-05 -5.0508E-04 -1.2741E-02 -3.2809E-02  3.1429E-05 -7.1485E-05 -7.8504E-05
  68    -6.1380E-02 -1.0631E-01  8.5042E-04 -4.1190E-03  8.5157E-03  2.8511E-02  3.6946E-02 -1.6002E-03  2.7717E-03 -1.2218E-03
  69    -1.2074E-01  1.9697E-02 -2.8183E-03  1.3651E-02 -2.8221E-02 -9.4489E-02 -1.2244E-01  4.6581E-04 -4.7481E-03 -3.3199E-03
  70    -1.9697E-02  9.7992E-02  4.8815E-03 -2.3644E-02  4.8881E-02  1.6366E-01  2.1207E-01 -4.7481E-03  5.9485E-03  5.7502E-03
  71    -7.6343E-02  5.5730E-02 -1.6584E-03  8.0323E-03 -1.6606E-02 -5.5599E-02 -7.2047E-02  2.9520E-03 -4.7473E-04 -2.7413E-03
  72     5.5730E-02 -1.1991E-02 -2.8724E-03  1.3912E-02 -2.8762E-02 -9.6300E-02 -1.2479E-01  4.7473E-04 -3.5002E-03 -4.7481E-03
  73    -7.3260E-03 -1.2689E-02  2.3447E-05 -1.8098E-04  8.1038E-04  1.1697E-02  1.4681E-02 -6.1363E-05  1.0628E-04  1.6515E-04
  74    -4.0826E-02 -1.7497E-02  2.0506E-05 -1.5828E-04  7.0875E-04  1.0230E-02  1.2839E-02 -5.9354E-05  1.4584E-04  8.7188E-05
  75     1.7497E-02  6.1029E-02 -3.5518E-05  2.7415E-04 -1.2276E-03 -1.7719E-02 -2.2239E-02  1.4584E-04 -2.2776E-04 -1.5101E-04
  76    -3.4483E-02  4.5837E-02  2.9183E-05 -2.2525E-04  1.0086E-03  1.4558E-02  1.8272E-02 -1.4582E-04  1.3008E-04  1.6692E-04
  77     4.5837E-02  1.8445E-02  5.0546E-05 -3.9015E-04  1.7470E-03  2.5216E-02  3.1648E-02 -1.3008E-04  2.9603E-04  2.8912E-04
  78     8.1044E-03  1.4037E-02 -2.8041E-05  2.1644E-04 -9.6916E-04 -1.3989E-02 -1.7557E-02  8.0659E-05 -1.3971E-04 -1.8039E-04
  79     3.0007E-02 -1.7324E-02  9.8928E-22 -5.2985E-20  1.2268E-19  0.0000E+00  0.0000E+00 -4.4138E-05 -2.5483E-05  2.6367E-20

             31          32          33          34          35          36          37          38          39          40

  31     1.0000E+00
  32     0.0000E+00  1.0000E+00
  33     0.0000E+00  0.0000E+00  1.0000E+00
  34     5.0525E-01  0.0000E+00  0.0000E+00  1.0000E+00
  35     0.0000E+00  5.0525E-01  0.0000E+00  0.0000E+00  1.0000E+00
  36     0.0000E+00  0.0000E+00  5.0525E-01  0.0000E+00  0.0000E+00  1.0000E+00
  37     1.5620E-01  0.0000E+00  0.0000E+00  6.5303E-01  0.0000E+00  0.0000E+00  1.0000E+00
  38     0.0000E+00  1.5620E-01  0.0000E+00  0.0000E+00  6.5303E-01  0.0000E+00  0.0000E+00  1.0000E+00
  39     0.0000E+00  0.0000E+00  1.5620E-01  0.0000E+00  0.0000E+00  6.5303E-01  0.0000E+00  0.0000E+00  1.0000E+00
  40     0.0000E+00  0.0000E+00  0.0000E+00  0.0000E+00  0.0000E+00  0.0000E+00  0.0000E+00  0.0000E+00  0.0000E+00  1.0000E+00
  41     0.0000E+00  0.0000E+00  0.0000E+00  0.0000E+00  0.0000E+00  0.0000E+00  0.0000E+00  0.0000E+00  0.0000E+00  0.0000E+00
  42     0.0000E+00  0.0000E+00  0.0000E+00  0.0000E+00  0.0000E+00  0.0000E+00  0.0000E+00  0.0000E+00  0.0000E+00  0.0000E+00
  43     0.0000E+00  0.0000E+00  0.0000E+00  0.0000E+00  0.0000E+00  0.0000E+00  0.0000E+00  0.0000E+00  0.0000E+00  0.0000E+00
  44     0.0000E+00  0.0000E+00  0.0000E+00  0.0000E+00  0.0000E+00  0.0000E+00  0.0000E+00  0.0000E+00  0.0000E+00  0.0000E+00
  45     0.0000E+00  0.0000E+00  0.0000E+00 -9.1184E-05  1.5793E-04  1.5496E-04 -8.8312E-03  1.5296E-02  1.5008E-02  1.4724E-04
  46     0.0000E+00  0.0000E+00  0.0000E+00 -2.4949E-04  4.3213E-04  4.2400E-04 -1.7239E-02  2.9859E-02  2.9297E-02  3.6653E-04
  47    -3.2272E-05  5.5896E-05  5.4845E-05 -5.8370E-03  1.0110E-02  9.9198E-03 -6.9836E-02  1.2096E-01  1.1868E-01  4.8186E-03
  48    -5.1164E-03  8.8619E-03  8.6952E-03 -4.0876E-02  7.0798E-02  6.9467E-02 -1.4718E-01  2.5492E-01  2.5012E-01  1.5363E-02
  49    -2.5721E-05  6.6775E-05  6.5519E-05 -1.7537E-03  7.8157E-03  7.6687E-03  1.2649E-02  4.5365E-02  4.4512E-02  6.5033E-03
  50     6.6775E-05 -1.0283E-04 -1.1348E-04  7.8157E-03 -1.0779E-02 -1.3283E-02  4.5365E-02 -3.9734E-02 -7.7097E-02 -1.1264E-02
  51     6.5519E-05 -1.1348E-04 -9.8516E-05  7.6687E-03 -1.3283E-02 -1.0274E-02  4.4512E-02 -7.7097E-02 -3.6806E-02  2.6742E-03
  52    -2.6046E-04  8.0176E-04  7.8668E-04 -3.3289E-03  2.1911E-02  2.1499E-02  2.8589E-02  7.9683E-02  7.8185E-02  1.5718E-02
  53     8.0176E-04 -1.1862E-03 -1.3626E-03  2.1911E-02 -2.8629E-02 -3.7237E-02  7.9683E-02 -6.3421E-02 -1.3542E-01 -2.7224E-02
  54     7.8668E-04 -1.3626E-03 -1.1345E-03  2.1499E-02 -3.7237E-02 -2.7215E-02  7.8185E-02 -1.3542E-01 -5.8278E-02  1.0193E-02
  55    -1.0313E-03  6.9201E-03  6.7899E-03  1.3249E-03  5.5444E-02  5.4402E-02  7.0638E-02  1.3213E-01  1.2964E-01  3.2425E-02
  56     6.9201E-03 -9.0220E-03 -1.1761E-02  5.5444E-02 -6.2697E-02 -9.4226E-02  1.3213E-01 -8.1932E-02 -2.2455E-01 -5.6162E-02
  57     6.7899E-03 -1.1761E-02 -8.5753E-03  5.4402E-02 -9.4226E-02 -5.9118E-02  1.2964E-01 -2.2455E-01 -7.3404E-02  3.4949E-02
  58    -2.4478E-05  4.2397E-05  1.0436E-05 -3.3996E-03  5.8882E-03 -1.1215E-03 -1.3573E-02  2.3510E-02 -2.0025E-02 -1.6632E-02
  59     4.2872E-05 -1.0542E-04 -9.2850E-05  2.7988E-03 -1.1747E-02 -9.1819E-03 -7.9072E-03 -2.9397E-02 -1.4204E-02 -1.8317E-03
  60    -1.0542E-04  1.6460E-04  1.6082E-04 -1.1747E-02  1.6363E-02  1.5904E-02 -2.9397E-02  2.6037E-02  2.4603E-02  3.1726E-03
  61     4.6401E-05 -4.3694E-05 -6.0864E-05  6.3343E-03 -2.8524E-03 -6.7819E-03  2.4626E-02  8.0588E-03 -1.6972E-02 -8.0321E-03
  62     4.3694E-05 -9.6854E-05 -1.0542E-04  2.8524E-03 -9.6280E-03 -1.1747E-02 -8.0588E-03 -1.5321E-02 -2.9397E-02 -1.3912E-02
  63    -2.5502E-04  4.4170E-04  4.6830E-05 -9.0789E-03  1.5725E-02 -4.5637E-03 -2.6588E-02  4.6053E-02 -4.1190E-02 -4.0340E-02
  64     3.7069E-04 -1.0286E-03 -8.7794E-04  5.5493E-03 -2.9605E-02 -2.2256E-02 -1.7900E-02 -5.5373E-02 -2.4987E-02 -2.6465E-03
  65    -1.0286E-03  1.5584E-03  1.5206E-03 -2.9605E-02  3.9734E-02  3.8548E-02 -5.5373E-02  4.6039E-02  4.3279E-02  4.5839E-03
  66     4.8077E-04 -3.7779E-04 -5.9387E-04  1.6849E-02 -5.6557E-03 -1.7092E-02  4.8155E-02  1.8243E-02 -3.1969E-02 -1.8557E-02
  67     3.7779E-04 -9.1700E-04 -1.0286E-03  5.6557E-03 -2.3380E-02 -2.9605E-02 -1.8243E-02 -2.7090E-02 -5.5373E-02 -3.2142E-02
  68    -8.5922E-03  1.4882E-02 -7.2867E-03 -4.9918E-02  8.6461E-02 -6.0717E-02 -9.0017E-02  1.5591E-01 -1.6822E-01 -1.4609E-01
  69     1.6093E-03 -2.4676E-02 -1.6776E-02 -1.3213E-02 -1.2267E-01 -7.0912E-02 -9.5907E-02 -1.5508E-01 -4.3047E-02  1.0095E-02
  70    -2.4676E-02  3.0103E-02  2.9057E-02 -1.2267E-01  1.2843E-01  1.2282E-01 -1.5508E-01  8.3167E-02  7.4560E-02 -1.7485E-02
  71     1.5819E-02 -1.6401E-03 -1.4247E-02  9.1120E-02  1.3466E-02 -7.0821E-02  1.6180E-01  9.7746E-02 -8.9537E-02 -6.1380E-02
  72     1.6401E-03 -1.7713E-02 -2.4676E-02 -1.3466E-02 -7.5570E-02 -1.2267E-01 -9.7746E-02 -4.8937E-02 -1.5508E-01 -1.0631E-01
  73    -6.2742E-04  1.0867E-03  1.8604E-03 -5.4612E-03  9.4591E-03  3.1982E-02  6.3979E-03 -1.1081E-02  3.1527E-02  4.1311E-02
  74    -6.2293E-04  1.6405E-03  8.8015E-04 -6.8974E-03  2.7998E-02  6.6189E-03  1.6337E-03  2.7152E-02 -1.2308E-02 -2.8420E-02
  75     1.6405E-03 -2.5172E-03 -1.5245E-03  2.7998E-02 -3.9227E-02 -1.1464E-02  2.7152E-02 -2.9719E-02  2.1318E-02  4.9224E-02
  76    -1.6870E-03  1.3239E-03  1.8115E-03 -3.2700E-02  1.0952E-02  2.5399E-02 -4.0419E-02 -1.5325E-02  1.2332E-02  1.3571E-02
  77    -1.3239E-03  3.2157E-03  3.1377E-03 -1.0952E-02  4.5347E-02  4.3993E-02  1.5325E-02  2.2723E-02  2.1360E-02  2.3506E-02
  78     8.4525E-04 -1.4640E-03 -2.0015E-03  9.2441E-03 -1.6011E-02 -3.1863E-02 -2.5843E-03  4.4761E-03 -2.5778E-02 -4.3753E-02
  79    -5.7586E-04 -3.3247E-04  5.0687E-19 -1.6462E-02 -9.5044E-03  0.0000E+00 -3.0748E-02 -1.7752E-02 -1.5732E-17  0.0000E+00

             41          42          43          44          45          46          47          48          49          50

  41     1.0000E+00
  42     0.0000E+00  1.0000E+00
  43     0.0000E+00  0.0000E+00  1.0000E+00
  44     0.0000E+00  0.0000E+00  0.0000E+00  1.0000E+00
  45    -4.8797E-04  8.4519E-04 -2.8713E-04 -4.9733E-04  1.0000E+00
  46    -1.2147E-03  2.1039E-03 -7.1474E-04 -1.2380E-03  8.7145E-01  1.0000E+00
  47    -1.5969E-02  2.7659E-02 -9.3966E-03 -1.6275E-02  3.2551E-01  5.5944E-01  1.0000E+00
  48    -5.0915E-02  8.8187E-02 -2.9959E-02 -5.1891E-02  1.3293E-01  2.4927E-01  7.4970E-01  1.0000E+00
  49    -4.7049E-03  2.1875E-02 -1.2095E-02 -4.7951E-03  0.0000E+00  0.0000E+00  0.0000E+00  0.0000E+00  1.0000E+00
  50     2.1875E-02 -2.9965E-02  4.7951E-03  1.7632E-02  0.0000E+00  0.0000E+00  0.0000E+00  0.0000E+00  0.0000E+00  1.0000E+00
  51     1.6801E-02 -2.9100E-02  1.2630E-02  2.1875E-02  0.0000E+00  0.0000E+00  0.0000E+00  0.0000E+00  0.0000E+00  0.0000E+00
  52    -6.7931E-03  4.8671E-02 -2.9072E-02 -6.9233E-03  0.0000E+00  0.0000E+00  0.0000E+00  0.0000E+00  8.9869E-01  0.0000E+00
  53     4.8671E-02 -6.2993E-02  6.9233E-03  3.7066E-02  0.0000E+00  0.0000E+00  0.0000E+00  0.0000E+00  0.0000E+00  8.9869E-01
  54     3.5218E-02 -6.0999E-02  2.8100E-02  4.8671E-02  0.0000E+00  0.0000E+00  0.0000E+00  0.0000E+00  0.0000E+00  0.0000E+00
  55     3.0718E-03  8.4735E-02 -5.9380E-02  3.1307E-03  0.0000E+00  0.0000E+00  0.0000E+00  0.0000E+00  6.5886E-01  0.0000E+00
  56     8.4735E-02 -9.4771E-02 -3.1307E-03  5.5765E-02  0.0000E+00  0.0000E+00  0.0000E+00  0.0000E+00  0.0000E+00  6.5886E-01
  57     5.2547E-02 -9.1014E-02  4.8922E-02  8.4735E-02  0.0000E+00  0.0000E+00  0.0000E+00  0.0000E+00  0.0000E+00  0.0000E+00
  58    -1.8317E-03  3.1726E-03 -8.0321E-03 -1.3912E-02  0.0000E+00  0.0000E+00  0.0000E+00  0.0000E+00  0.0000E+00  0.0000E+00
  59     5.9567E-03 -2.6173E-02  1.8078E-02  7.6743E-03  0.0000E+00  0.0000E+00  0.0000E+00  0.0000E+00  0.0000E+00  0.0000E+00
  60    -2.6173E-02  3.6179E-02 -7.6743E-03 -2.6939E-02  0.0000E+00  0.0000E+00  0.0000E+00  0.0000E+00  0.0000E+00  0.0000E+00
  61     1.8078E-02 -7.6743E-03 -6.9962E-03  1.1470E-02  0.0000E+00  0.0000E+00  0.0000E+00  0.0000E+00  0.0000E+00  0.0000E+00
  62     7.6743E-03 -2.6939E-02  1.1470E-02  6.2482E-03  0.0000E+00  0.0000E+00  0.0000E+00  0.0000E+00  0.0000E+00  0.0000E+00
  63    -2.6465E-03  4.5839E-03 -1.8557E-02 -3.2142E-02  0.0000E+00  0.0000E+00  0.0000E+00  0.0000E+00  0.0000E+00  0.0000E+00
  64     9.3621E-03 -5.3470E-02  4.0620E-02  1.2575E-02  0.0000E+00  0.0000E+00  0.0000E+00  0.0000E+00  0.0000E+00  0.0000E+00
  65    -5.3470E-02  7.1104E-02 -1.2575E-02 -5.5141E-02  0.0000E+00  0.0000E+00  0.0000E+00  0.0000E+00  0.0000E+00  0.0000E+00
  66     4.0620E-02 -1.2575E-02 -1.8334E-02  2.4399E-02  0.0000E+00  0.0000E+00  0.0000E+00  0.0000E+00  0.0000E+00  0.0000E+00
  67     1.2575E-02 -5.5141E-02  2.4399E-02  9.8397E-03  0.0000E+00  0.0000E+00  0.0000E+00  0.0000E+00  0.0000E+00  0.0000E+00
  68     1.0095E-02 -1.7485E-02 -6.1380E-02 -1.0631E-01  0.0000E+00  0.0000E+00  0.0000E+00  0.0000E+00  0.0000E+00  0.0000E+00
  69    -1.1243E-02 -9.3640E-02  1.2074E-01 -1.9697E-02  0.0000E+00  0.0000E+00  0.0000E+00  0.0000E+00  0.0000E+00  0.0000E+00
  70    -9.3640E-02  9.6883E-02  1.9697E-02 -9.7992E-02  0.0000E+00  0.0000E+00  0.0000E+00  0.0000E+00  0.0000E+00  0.0000E+00
  71     1.2074E-01  1.9697E-02 -7.6343E-02  5.5730E-02  0.0000E+00  0.0000E+00  0.0000E+00  0.0000E+00  0.0000E+00  0.0000E+00
  72    -1.9697E-02 -9.7992E-02  5.5730E-02 -1.1991E-02  0.0000E+00  0.0000E+00  0.0000E+00  0.0000E+00  0.0000E+00  0.0000E+00
  73    -2.5179E-02  4.3611E-02  7.3260E-03  1.2689E-02  0.0000E+00  0.0000E+00  0.0000E+00  0.0000E+00  0.0000E+00  0.0000E+00
  74    -8.3360E-03  2.4416E-02 -4.0826E-02 -1.7497E-02  0.0000E+00  0.0000E+00  0.0000E+00  0.0000E+00  1.8754E-17  0.0000E+00
  75     2.4416E-02 -3.6529E-02  1.7497E-02  6.1029E-02  0.0000E+00  0.0000E+00  0.0000E+00  0.0000E+00  0.0000E+00  1.8754E-17
  76    -5.7906E-02  1.7885E-02  3.4483E-02 -4.5837E-02  0.0000E+00  0.0000E+00  0.0000E+00  0.0000E+00  0.0000E+00  0.0000E+00
  77    -1.7885E-02  7.8559E-02 -4.5837E-02 -1.8445E-02  0.0000E+00  0.0000E+00  0.0000E+00  0.0000E+00  0.0000E+00  0.0000E+00
  78     2.0614E-02 -3.5705E-02  8.1044E-03  1.4037E-02  0.0000E+00  0.0000E+00  0.0000E+00  0.0000E+00 -3.7773E-17  0.0000E+00
  79    -3.9147E-02 -2.2601E-02  3.0007E-02 -1.7324E-02  0.0000E+00  0.0000E+00  0.0000E+00  0.0000E+00  0.0000E+00  3.7773E-17

             51          52          53          54          55          56          57          58          59          60

  51     1.0000E+00
  52     0.0000E+00  1.0000E+00
  53     0.0000E+00  0.0000E+00  1.0000E+00
  54     8.9869E-01  0.0000E+00  0.0000E+00  1.0000E+00
  55     0.0000E+00  8.8920E-01  0.0000E+00  0.0000E+00  1.0000E+00
  56     0.0000E+00  0.0000E+00  8.8920E-01  0.0000E+00  0.0000E+00  1.0000E+00
  57     6.5886E-01  0.0000E+00  0.0000E+00  8.8920E-01  0.0000E+00  0.0000E+00  1.0000E+00
  58     0.0000E+00  0.0000E+00  0.0000E+00  0.0000E+00  0.0000E+00  0.0000E+00  0.0000E+00  1.0000E+00
  59     0.0000E+00  0.0000E+00  0.0000E+00  0.0000E+00  0.0000E+00  0.0000E+00  0.0000E+00  0.0000E+00  1.0000E+00
  60     0.0000E+00  0.0000E+00  0.0000E+00  0.0000E+00  0.0000E+00  0.0000E+00  0.0000E+00  0.0000E+00  0.0000E+00  1.0000E+00
  61     0.0000E+00  0.0000E+00  0.0000E+00  0.0000E+00  0.0000E+00  0.0000E+00  0.0000E+00  0.0000E+00  0.0000E+00  0.0000E+00
  62     0.0000E+00  0.0000E+00  0.0000E+00  0.0000E+00  0.0000E+00  0.0000E+00  0.0000E+00  0.0000E+00  0.0000E+00  0.0000E+00
  63     0.0000E+00  0.0000E+00  0.0000E+00  0.0000E+00  0.0000E+00  0.0000E+00  0.0000E+00  8.9117E-01  0.0000E+00  0.0000E+00
  64     0.0000E+00  0.0000E+00  0.0000E+00  0.0000E+00  0.0000E+00  0.0000E+00  0.0000E+00  0.0000E+00  8.9117E-01  0.0000E+00
  65     0.0000E+00  0.0000E+00  0.0000E+00  0.0000E+00  0.0000E+00  0.0000E+00  0.0000E+00  0.0000E+00  0.0000E+00  8.9117E-01
  66     0.0000E+00  0.0000E+00  0.0000E+00  0.0000E+00  0.0000E+00  0.0000E+00  0.0000E+00  0.0000E+00  0.0000E+00  0.0000E+00
  67     0.0000E+00  0.0000E+00  0.0000E+00  0.0000E+00  0.0000E+00  0.0000E+00  0.0000E+00  0.0000E+00  0.0000E+00  0.0000E+00
  68     0.0000E+00  0.0000E+00  0.0000E+00  0.0000E+00  0.0000E+00  0.0000E+00  0.0000E+00  4.1582E-01  0.0000E+00  0.0000E+00
  69     0.0000E+00  0.0000E+00  0.0000E+00  0.0000E+00  0.0000E+00  0.0000E+00  0.0000E+00  0.0000E+00  4.1582E-01  0.0000E+00
  70     0.0000E+00  0.0000E+00  0.0000E+00  0.0000E+00  0.0000E+00  0.0000E+00  0.0000E+00  0.0000E+00  0.0000E+00  4.1582E-01
  71     0.0000E+00  0.0000E+00  0.0000E+00  0.0000E+00  0.0000E+00  0.0000E+00  0.0000E+00  0.0000E+00  0.0000E+00  0.0000E+00
  72     0.0000E+00  0.0000E+00  0.0000E+00  0.0000E+00  0.0000E+00  0.0000E+00  0.0000E+00  0.0000E+00  0.0000E+00  0.0000E+00
  73    -1.3396E-16  0.0000E+00  0.0000E+00  0.0000E+00  0.0000E+00  0.0000E+00  0.0000E+00  0.0000E+00  0.0000E+00  0.0000E+00
  74     0.0000E+00  0.0000E+00  0.0000E+00  0.0000E+00  0.0000E+00  0.0000E+00  0.0000E+00  0.0000E+00  0.0000E+00  0.0000E+00
  75     0.0000E+00  0.0000E+00  0.0000E+00  0.0000E+00  0.0000E+00  0.0000E+00  0.0000E+00  0.0000E+00  0.0000E+00  0.0000E+00
  76     0.0000E+00  0.0000E+00  0.0000E+00  0.0000E+00  0.0000E+00  0.0000E+00  0.0000E+00  0.0000E+00  0.0000E+00  0.0000E+00
  77     0.0000E+00  0.0000E+00  0.0000E+00  0.0000E+00  0.0000E+00  0.0000E+00  0.0000E+00  0.0000E+00  0.0000E+00  0.0000E+00
  78     0.0000E+00  0.0000E+00  0.0000E+00  0.0000E+00  1.1620E-16  0.0000E+00  0.0000E+00  0.0000E+00  0.0000E+00  0.0000E+00
  79     0.0000E+00  0.0000E+00  0.0000E+00  0.0000E+00  0.0000E+00 -1.1620E-16  0.0000E+00  0.0000E+00  0.0000E+00  0.0000E+00

             61          62          63          64          65          66          67          68          69          70

  61     1.0000E+00
  62     0.0000E+00  1.0000E+00
  63     0.0000E+00  0.0000E+00  1.0000E+00
  64     0.0000E+00  0.0000E+00  0.0000E+00  1.0000E+00
  65     0.0000E+00  0.0000E+00  0.0000E+00  0.0000E+00  1.0000E+00
  66     8.9117E-01  0.0000E+00  0.0000E+00  0.0000E+00  0.0000E+00  1.0000E+00
  67     0.0000E+00  8.9117E-01  0.0000E+00  0.0000E+00  0.0000E+00  0.0000E+00  1.0000E+00
  68     0.0000E+00  0.0000E+00  6.5359E-01  0.0000E+00  0.0000E+00  0.0000E+00  0.0000E+00  1.0000E+00
  69     0.0000E+00  0.0000E+00  0.0000E+00  6.5359E-01  0.0000E+00  0.0000E+00  0.0000E+00  0.0000E+00  1.0000E+00
  70     0.0000E+00  0.0000E+00  0.0000E+00  0.0000E+00  6.5359E-01  0.0000E+00  0.0000E+00  0.0000E+00  0.0000E+00  1.0000E+00
  71     4.1582E-01  0.0000E+00  0.0000E+00  0.0000E+00  0.0000E+00  6.5359E-01  0.0000E+00  0.0000E+00  0.0000E+00  0.0000E+00
  72     0.0000E+00  4.1582E-01  0.0000E+00  0.0000E+00  0.0000E+00  0.0000E+00  6.5359E-01  0.0000E+00  0.0000E+00  0.0000E+00
  73     0.0000E+00  0.0000E+00  0.0000E+00  0.0000E+00  0.0000E+00  0.0000E+00  0.0000E+00  0.0000E+00  0.0000E+00  0.0000E+00
  74     0.0000E+00  0.0000E+00  0.0000E+00  0.0000E+00  0.0000E+00  0.0000E+00  0.0000E+00  0.0000E+00  0.0000E+00  0.0000E+00
  75     0.0000E+00  0.0000E+00  0.0000E+00  0.0000E+00  0.0000E+00  0.0000E+00  0.0000E+00  0.0000E+00  0.0000E+00  0.0000E+00
  76     0.0000E+00  0.0000E+00  0.0000E+00  0.0000E+00  0.0000E+00  0.0000E+00  0.0000E+00  0.0000E+00  0.0000E+00  0.0000E+00
  77     0.0000E+00  0.0000E+00  0.0000E+00  0.0000E+00  0.0000E+00  0.0000E+00  0.0000E+00  0.0000E+00  0.0000E+00  0.0000E+00
  78     0.0000E+00  0.0000E+00  0.0000E+00  0.0000E+00  0.0000E+00  0.0000E+00  0.0000E+00  0.0000E+00  0.0000E+00  0.0000E+00
  79     0.0000E+00  0.0000E+00  0.0000E+00  0.0000E+00  0.0000E+00  0.0000E+00  0.0000E+00  0.0000E+00  0.0000E+00  0.0000E+00

             71          72          73          74          75          76          77          78          79
  71     1.0000E+00
  72     0.0000E+00  1.0000E+00
  73     0.0000E+00  0.0000E+00  1.0000E+00
  74     0.0000E+00  0.0000E+00  0.0000E+00  1.0000E+00
  75     0.0000E+00  0.0000E+00  0.0000E+00  0.0000E+00  1.0000E+00
  76     0.0000E+00  0.0000E+00  0.0000E+00  0.0000E+00  0.0000E+00  1.0000E+00
  77     0.0000E+00  0.0000E+00  0.0000E+00  0.0000E+00  0.0000E+00  0.0000E+00  1.0000E+00
  78     0.0000E+00  0.0000E+00  0.0000E+00  4.9418E-17  0.0000E+00  0.0000E+00  0.0000E+00  1.0000E+00
  79     0.0000E+00  0.0000E+00  0.0000E+00  0.0000E+00 -4.9418E-17  0.0000E+00  0.0000E+00  0.0000E+00  1.0000E+00

 OVERLAP MATRIX - CELL N.   2( -1 -1  0)

              1           2           3           4           5           6           7           8           9          10

   1     0.0000E+00
   2     0.0000E+00  0.0000E+00
   3     0.0000E+00  0.0000E+00  0.0000E+00
   4     8.4759E-09 -9.3474E-08  1.0712E-06  2.8776E-04
   5     1.3962E-04 -7.2382E-04  1.7315E-03  1.2336E-02  5.9452E-02
   6     0.0000E+00  0.0000E+00  0.0000E+00 -1.0914E-07 -3.2947E-04  0.0000E+00
   7     0.0000E+00  0.0000E+00  0.0000E+00 -6.3013E-08 -1.9022E-04  0.0000E+00  0.0000E+00
   8     0.0000E+00  0.0000E+00  0.0000E+00  0.0000E+00  0.0000E+00  0.0000E+00  0.0000E+00  0.0000E+00
   9     0.0000E+00  0.0000E+00  0.0000E+00 -2.8584E-06 -2.0484E-03  0.0000E+00  0.0000E+00  0.0000E+00  0.0000E+00
  10     0.0000E+00  0.0000E+00  0.0000E+00 -1.6503E-06 -1.1826E-03  0.0000E+00  0.0000E+00  0.0000E+00  0.0000E+00  0.0000E+00
  11     0.0000E+00  0.0000E+00  0.0000E+00  0.0000E+00  0.0000E+00  0.0000E+00  0.0000E+00  0.0000E+00  0.0000E+00  0.0000E+00
  12    -9.6346E-08  9.4331E-07 -8.2472E-06 -1.1549E-03 -2.3492E-02 -1.0264E-06 -6.2056E-07  0.0000E+00 -2.1225E-05 -1.2917E-05
  13    -5.5625E-08  5.4462E-07 -4.7615E-06 -6.6677E-04 -1.3563E-02 -6.2056E-07 -3.0982E-07  0.0000E+00 -1.2917E-05 -6.3098E-06
  14     0.0000E+00  0.0000E+00  0.0000E+00  0.0000E+00  0.0000E+00  0.0000E+00  0.0000E+00  4.8460E-08  0.0000E+00  0.0000E+00
  15    -1.1287E-03  5.5778E-03 -1.2111E-02 -5.6637E-02 -1.5487E-01 -1.8476E-03 -1.2451E-03  0.0000E+00 -1.0302E-02 -6.9938E-03
  16    -6.5168E-04  3.2204E-03 -6.9921E-03 -3.2700E-02 -8.9413E-02 -1.2451E-03 -4.0989E-04  0.0000E+00 -6.9938E-03 -2.2258E-03
  17     0.0000E+00  0.0000E+00  0.0000E+00  0.0000E+00  0.0000E+00  0.0000E+00  0.0000E+00  3.0896E-04  0.0000E+00  0.0000E+00
  18    -5.2043E-07  4.4750E-06 -2.8843E-05 -1.9365E-03 -1.8210E-02 -4.5441E-06 -2.6236E-06  0.0000E+00 -7.1637E-05 -4.1359E-05
  19     0.0000E+00  0.0000E+00  0.0000E+00  0.0000E+00  0.0000E+00  0.0000E+00  0.0000E+00 -6.0306E-07  0.0000E+00  0.0000E+00
  20     0.0000E+00  0.0000E+00  0.0000E+00  0.0000E+00  0.0000E+00  0.0000E+00  0.0000E+00 -3.4818E-07  0.0000E+00  0.0000E+00
  21     4.5071E-07 -3.8754E-06  2.4979E-05  1.6771E-03  1.5771E-02  3.6338E-06  2.7943E-06  0.0000E+00  5.6606E-05  4.5228E-05
  22     7.8065E-07 -6.7125E-06  4.3264E-05  2.9048E-03  2.7315E-02  6.9903E-06  3.6338E-06  0.0000E+00  1.1059E-04  5.6606E-05
  23     0.0000E+00  0.0000E+00  0.0000E+00  0.0000E+00  6.2346E-07  0.0000E+00  0.0000E+00  0.0000E+00  0.0000E+00  0.0000E+00
  24     0.0000E+00  0.0000E+00  0.0000E+00  0.0000E+00 -3.6244E-06  0.0000E+00  0.0000E+00  0.0000E+00  0.0000E+00  0.0000E+00
  25     0.0000E+00  0.0000E+00  0.0000E+00  0.0000E+00  1.1092E-05  0.0000E+00  0.0000E+00  0.0000E+00  0.0000E+00  0.0000E+00
  26     0.0000E+00  0.0000E+00  0.0000E+00  1.1221E-07  2.1769E-04  0.0000E+00  0.0000E+00  0.0000E+00  0.0000E+00  0.0000E+00
  27     6.2346E-07 -3.6244E-06  1.1092E-05  2.1769E-04  3.9265E-03  1.6230E-06  9.3703E-07 -1.8388E-06  1.3135E-05  7.5833E-06
  28     0.0000E+00  0.0000E+00  0.0000E+00  0.0000E+00 -1.6230E-06  0.0000E+00  0.0000E+00  0.0000E+00  0.0000E+00  0.0000E+00
  29     0.0000E+00  0.0000E+00  0.0000E+00  0.0000E+00 -9.3703E-07  0.0000E+00  0.0000E+00  0.0000E+00  0.0000E+00  0.0000E+00
  30     0.0000E+00  0.0000E+00  0.0000E+00  0.0000E+00  1.8388E-06  0.0000E+00  0.0000E+00  0.0000E+00  0.0000E+00  0.0000E+00
  31     0.0000E+00  0.0000E+00  0.0000E+00  0.0000E+00 -1.3135E-05  0.0000E+00  0.0000E+00  0.0000E+00  0.0000E+00  0.0000E+00
  32     0.0000E+00  0.0000E+00  0.0000E+00  0.0000E+00 -7.5833E-06  0.0000E+00  0.0000E+00  0.0000E+00  0.0000E+00  0.0000E+00
  33     0.0000E+00  0.0000E+00  0.0000E+00  0.0000E+00  1.4881E-05  0.0000E+00  0.0000E+00  0.0000E+00  0.0000E+00  0.0000E+00
  34     0.0000E+00  0.0000E+00  0.0000E+00 -5.1432E-07 -4.2951E-04  0.0000E+00  0.0000E+00  0.0000E+00  0.0000E+00  0.0000E+00
  35     0.0000E+00  0.0000E+00  0.0000E+00 -2.9694E-07 -2.4798E-04  0.0000E+00  0.0000E+00  0.0000E+00  0.0000E+00  0.0000E+00
  36     0.0000E+00  0.0000E+00  0.0000E+00  5.8272E-07  4.8663E-04  0.0000E+00  0.0000E+00  0.0000E+00  0.0000E+00  0.0000E+00
  37    -1.1939E-05  6.4020E-05 -1.6481E-04 -1.6482E-03 -1.2953E-02 -2.0942E-05 -1.4113E-05  2.7696E-05 -1.4110E-04 -9.5792E-05
  38    -6.8930E-06  3.6962E-05 -9.5151E-05 -9.5158E-04 -7.4786E-03 -1.4113E-05 -4.6458E-06  1.5990E-05 -9.5792E-05 -3.0486E-05
  39     1.3527E-05 -7.2534E-05  1.8672E-04  1.8674E-03  1.4676E-02  2.7696E-05  1.5990E-05 -2.7876E-05  1.8798E-04  1.0853E-04
  40     0.0000E+00  0.0000E+00  0.0000E+00  9.8906E-07  3.2668E-04  0.0000E+00  0.0000E+00  0.0000E+00  0.0000E+00  0.0000E+00
  41     0.0000E+00  0.0000E+00  0.0000E+00 -3.1458E-06 -1.0391E-03  0.0000E+00  0.0000E+00  0.0000E+00  0.0000E+00  0.0000E+00
  42     0.0000E+00  0.0000E+00  0.0000E+00 -1.8162E-06 -5.9990E-04  0.0000E+00  0.0000E+00  0.0000E+00  0.0000E+00  0.0000E+00
  43     0.0000E+00  0.0000E+00  0.0000E+00  9.2553E-07  3.0570E-04  0.0000E+00  0.0000E+00  0.0000E+00  0.0000E+00  0.0000E+00
  44     0.0000E+00  0.0000E+00  0.0000E+00  1.6031E-06  5.2949E-04  0.0000E+00  0.0000E+00  0.0000E+00  0.0000E+00  0.0000E+00
  45     0.0000E+00  0.0000E+00  0.0000E+00  0.0000E+00  1.8691E-05  0.0000E+00  0.0000E+00  0.0000E+00  0.0000E+00  0.0000E+00
  46     0.0000E+00  0.0000E+00  0.0000E+00  0.0000E+00  4.2402E-05  0.0000E+00  0.0000E+00  0.0000E+00  0.0000E+00  0.0000E+00
  47     0.0000E+00  0.0000E+00  0.0000E+00  2.4433E-07  5.3612E-04  0.0000E+00  0.0000E+00  0.0000E+00  0.0000E+00  0.0000E+00
  48     1.4342E-06 -8.4618E-06  2.6571E-05  5.3517E-04  8.3221E-03  2.9300E-06  5.0749E-06 -2.4897E-06  2.4194E-05  4.1905E-05
  49     0.0000E+00  0.0000E+00  0.0000E+00 -3.1712E-07 -4.0325E-04  0.0000E+00  0.0000E+00  0.0000E+00  0.0000E+00  0.0000E+00
  50     0.0000E+00  0.0000E+00  0.0000E+00 -5.4926E-07 -6.9844E-04  0.0000E+00  0.0000E+00  0.0000E+00  0.0000E+00  0.0000E+00
  51     0.0000E+00  0.0000E+00  0.0000E+00  2.6947E-07  3.4265E-04  0.0000E+00  0.0000E+00  0.0000E+00  0.0000E+00  0.0000E+00
  52     0.0000E+00  0.0000E+00  0.0000E+00 -5.0560E-06 -1.2369E-03  0.0000E+00  0.0000E+00  0.0000E+00  0.0000E+00  0.0000E+00
  53     0.0000E+00  0.0000E+00  0.0000E+00 -8.7572E-06 -2.1424E-03  0.0000E+00  0.0000E+00  0.0000E+00  0.0000E+00  0.0000E+00
  54     0.0000E+00  0.0000E+00  0.0000E+00  4.2963E-06  1.0510E-03  0.0000E+00  0.0000E+00  0.0000E+00  0.0000E+00  0.0000E+00
  55    -1.2975E-07  9.1019E-07 -4.1025E-06 -2.1613E-04 -5.3371E-03 -3.4920E-07 -7.2993E-07  3.5810E-07 -4.0002E-06 -8.5062E-06
  56    -2.2474E-07  1.5765E-06 -7.1057E-06 -3.7436E-04 -9.2442E-03 -7.2993E-07 -1.1920E-06  6.2025E-07 -8.5062E-06 -1.3822E-05
  57     1.1026E-07 -7.7343E-07  3.4860E-06  1.8366E-04  4.5352E-03  3.5810E-07  6.2025E-07 -2.3207E-07  4.1731E-06  7.2280E-06
  58     0.0000E+00  0.0000E+00  0.0000E+00 -2.3491E-07 -2.4078E-04  0.0000E+00  0.0000E+00  0.0000E+00  0.0000E+00  0.0000E+00
  59     0.0000E+00  0.0000E+00  0.0000E+00 -2.7054E-07 -2.7731E-04  0.0000E+00  0.0000E+00  0.0000E+00  0.0000E+00  0.0000E+00
  60     0.0000E+00  0.0000E+00  0.0000E+00 -4.6859E-07 -4.8031E-04  0.0000E+00  0.0000E+00  0.0000E+00  0.0000E+00  0.0000E+00
  61     0.0000E+00  0.0000E+00  0.0000E+00 -3.1838E-07 -3.2634E-04  0.0000E+00  0.0000E+00  0.0000E+00  0.0000E+00  0.0000E+00
  62     0.0000E+00  0.0000E+00  0.0000E+00  5.5146E-07  5.6524E-04  0.0000E+00  0.0000E+00  0.0000E+00  0.0000E+00  0.0000E+00
  63     0.0000E+00  0.0000E+00  0.0000E+00 -2.5374E-06 -6.7298E-04  0.0000E+00  0.0000E+00  0.0000E+00  0.0000E+00  0.0000E+00
  64     0.0000E+00  0.0000E+00  0.0000E+00 -2.9223E-06 -7.7506E-04  0.0000E+00  0.0000E+00  0.0000E+00  0.0000E+00  0.0000E+00
  65     0.0000E+00  0.0000E+00  0.0000E+00 -5.0615E-06 -1.3424E-03  0.0000E+00  0.0000E+00  0.0000E+00  0.0000E+00  0.0000E+00
  66     0.0000E+00  0.0000E+00  0.0000E+00 -3.4390E-06 -9.1212E-04  0.0000E+00  0.0000E+00  0.0000E+00  0.0000E+00  0.0000E+00
  67     0.0000E+00  0.0000E+00  0.0000E+00  5.9566E-06  1.5798E-03  0.0000E+00  0.0000E+00  0.0000E+00  0.0000E+00  0.0000E+00
  68    -2.9847E-06  1.7755E-05 -5.5989E-05 -9.8926E-04 -8.5757E-03 -5.7945E-06 -1.0036E-05  7.7889E-06 -4.7216E-05 -8.1781E-05
  69    -3.4374E-06  2.0448E-05 -6.4481E-05 -1.1393E-03 -9.8765E-03 -6.3136E-06 -1.3801E-05  4.8238E-06 -5.1204E-05 -1.1396E-04
  70    -5.9538E-06  3.5416E-05 -1.1168E-04 -1.9733E-03 -1.7107E-02 -1.3801E-05 -2.2249E-05  8.3551E-06 -1.1396E-04 -1.8279E-04
  71    -4.0453E-06  2.4064E-05 -7.5884E-05 -1.3408E-03 -1.1623E-02 -1.1323E-05 -1.2869E-05  7.9678E-06 -9.4601E-05 -1.0437E-04
  72     7.0066E-06 -4.1679E-05  1.3143E-04  2.3223E-03  2.0132E-02  1.2869E-05  2.6184E-05 -1.3801E-05  1.0437E-04  2.1512E-04
  73     0.0000E+00  0.0000E+00  0.0000E+00 -9.3499E-06 -1.2013E-03  0.0000E+00  0.0000E+00  0.0000E+00  0.0000E+00  0.0000E+00
  74     0.0000E+00  0.0000E+00  0.0000E+00  1.4194E-06  1.8237E-04  0.0000E+00  0.0000E+00  0.0000E+00  0.0000E+00  0.0000E+00
  75     0.0000E+00  0.0000E+00  0.0000E+00  2.4584E-06  3.1587E-04  0.0000E+00  0.0000E+00  0.0000E+00  0.0000E+00  0.0000E+00
  76     0.0000E+00  0.0000E+00  0.0000E+00 -6.8610E-06 -8.8152E-04  0.0000E+00  0.0000E+00  0.0000E+00  0.0000E+00  0.0000E+00
  77     0.0000E+00  0.0000E+00  0.0000E+00  1.1884E-05  1.5268E-03  0.0000E+00  0.0000E+00  0.0000E+00  0.0000E+00  0.0000E+00
  78     0.0000E+00  0.0000E+00  0.0000E+00  1.3185E-05  1.6941E-03  0.0000E+00  0.0000E+00  0.0000E+00  0.0000E+00  0.0000E+00
  79     0.0000E+00  0.0000E+00  0.0000E+00 -1.1120E-20 -4.8301E-19  0.0000E+00  0.0000E+00  0.0000E+00  0.0000E+00  0.0000E+00

             11          12          13          14          15          16          17          18          19          20

  11     0.0000E+00
  12     0.0000E+00 -4.0858E-03
  13     0.0000E+00 -2.5769E-03 -1.1102E-03
  14     1.1478E-06  0.0000E+00  0.0000E+00  3.7751E-04
  15     0.0000E+00 -7.6176E-02 -5.3823E-02  0.0000E+00 -2.3873E-01
  16     0.0000E+00 -5.3823E-02 -1.4027E-02  0.0000E+00 -1.9174E-01 -1.7328E-02
  17     1.8121E-03  0.0000E+00  0.0000E+00  1.7048E-02  0.0000E+00  0.0000E+00  9.3371E-02
  18     0.0000E+00 -6.1895E-03 -3.5735E-03  0.0000E+00 -4.4837E-02 -2.5887E-02  0.0000E+00  8.3776E-03
  19    -1.0866E-05  0.0000E+00  0.0000E+00 -1.6081E-03  0.0000E+00  0.0000E+00 -2.9883E-02  0.0000E+00 -5.8543E-03
  20    -6.2733E-06  0.0000E+00  0.0000E+00 -9.2846E-04  0.0000E+00  0.0000E+00 -1.7253E-02  0.0000E+00 -3.7115E-03 -1.5685E-03
  21     0.0000E+00  4.5562E-03  4.4874E-03  0.0000E+00  2.3889E-02  4.8298E-02  0.0000E+00 -6.7579E-03  0.0000E+00  0.0000E+00
  22     0.0000E+00  9.7484E-03  4.5562E-03  0.0000E+00  7.5882E-02  2.3889E-02  0.0000E+00 -1.1705E-02  0.0000E+00  0.0000E+00
  23     0.0000E+00  0.0000E+00  0.0000E+00  0.0000E+00  1.1939E-05  6.8930E-06 -1.3527E-05  0.0000E+00  0.0000E+00  0.0000E+00
  24     0.0000E+00  0.0000E+00  0.0000E+00  0.0000E+00 -6.4020E-05 -3.6962E-05  7.2534E-05  0.0000E+00  0.0000E+00  0.0000E+00
  25     0.0000E+00  0.0000E+00  0.0000E+00  0.0000E+00  1.6481E-04  9.5151E-05 -1.8672E-04  0.0000E+00  0.0000E+00  0.0000E+00
  26     0.0000E+00  5.1432E-07  2.9694E-07 -5.8272E-07  1.6482E-03  9.5158E-04 -1.8674E-03  9.8906E-07 -3.1458E-06 -1.8162E-06
  27    -1.4881E-05  4.2951E-04  2.4798E-04 -4.8663E-04  1.2953E-02  7.4786E-03 -1.4676E-02  3.2668E-04 -1.0391E-03 -5.9990E-04
  28     0.0000E+00  0.0000E+00  0.0000E+00  0.0000E+00 -2.0942E-05 -1.4113E-05  2.7696E-05  0.0000E+00  0.0000E+00  0.0000E+00
  29     0.0000E+00  0.0000E+00  0.0000E+00  0.0000E+00 -1.4113E-05 -4.6458E-06  1.5990E-05  0.0000E+00  0.0000E+00  0.0000E+00
  30     0.0000E+00  0.0000E+00  0.0000E+00  0.0000E+00  2.7696E-05  1.5990E-05 -2.7876E-05  0.0000E+00  0.0000E+00  0.0000E+00
  31     0.0000E+00  0.0000E+00  0.0000E+00  0.0000E+00 -1.4110E-04 -9.5792E-05  1.8798E-04  0.0000E+00  0.0000E+00  0.0000E+00
  32     0.0000E+00  0.0000E+00  0.0000E+00  0.0000E+00 -9.5792E-05 -3.0486E-05  1.0853E-04  0.0000E+00  0.0000E+00  0.0000E+00
  33     0.0000E+00  0.0000E+00  0.0000E+00  0.0000E+00  1.8798E-04  1.0853E-04 -1.8816E-04  0.0000E+00  0.0000E+00  0.0000E+00
  34     0.0000E+00 -2.0690E-06 -1.3049E-06  2.5607E-06 -2.2780E-03 -1.6095E-03  3.1585E-03 -4.6836E-06  1.1921E-05  7.5382E-06
  35     0.0000E+00 -1.3049E-06 -5.6222E-07  1.4784E-06 -1.6095E-03 -4.1946E-04  1.8236E-03 -2.7041E-06  7.5382E-06  3.2168E-06
  36     0.0000E+00  2.5607E-06  1.4784E-06 -2.7101E-06  3.1585E-03  1.8236E-03 -3.0687E-03  3.3399E-06 -1.3791E-05 -7.9620E-06
  37     1.8798E-04 -2.2780E-03 -1.6095E-03  3.1585E-03 -2.4350E-02 -1.9557E-02  3.8378E-02 -2.3373E-03  4.6582E-03  3.3009E-03
  38     1.0853E-04 -1.6095E-03 -4.1946E-04  1.8236E-03 -1.9557E-02 -1.7674E-03  2.2157E-02 -1.3494E-03  3.3009E-03  8.4667E-04
  39    -1.8816E-04  3.1585E-03  1.8236E-03 -3.0687E-03  3.8378E-02  2.2157E-02 -3.3958E-02  8.1364E-04 -5.5428E-03 -3.2002E-03
  40     0.0000E+00  4.6836E-06  2.7041E-06 -3.3399E-06  2.3373E-03  1.3494E-03 -8.1364E-04 -3.1511E-06 -1.8836E-05 -1.0875E-05
  41     0.0000E+00 -1.1921E-05 -7.5382E-06  1.3791E-05 -4.6582E-03 -3.3009E-03  5.5428E-03 -1.8836E-05  5.9357E-05  3.7631E-05
  42     0.0000E+00 -7.5382E-06 -3.2168E-06  7.9620E-06 -3.3009E-03 -8.4667E-04  3.2002E-03 -1.0875E-05  3.7631E-05  1.5904E-05
  43     0.0000E+00  2.8392E-06  2.7964E-06 -4.3522E-06  7.4729E-04  1.5109E-03 -1.9058E-03  8.3568E-06 -1.5087E-05 -1.5089E-05
  44     0.0000E+00  6.0748E-06  2.8392E-06 -7.5382E-06  2.3738E-03  7.4729E-04 -3.3009E-03  1.4474E-05 -3.2510E-05 -1.5087E-05
  45     0.0000E+00  0.0000E+00  0.0000E+00  0.0000E+00  1.6310E-04  2.8250E-04 -1.3859E-04  0.0000E+00  0.0000E+00  0.0000E+00
  46     0.0000E+00  0.0000E+00  0.0000E+00  0.0000E+00  3.4619E-04  5.9962E-04 -2.9417E-04  0.0000E+00  0.0000E+00  0.0000E+00
  47     0.0000E+00  9.0668E-07  1.5704E-06 -7.7044E-07  2.6868E-03  4.6537E-03 -2.2831E-03 -2.9336E-06 -3.3786E-06 -5.8519E-06
  48    -2.0558E-05  7.8557E-04  1.3606E-03 -6.6752E-04  1.8686E-02  3.2366E-02 -1.5878E-02 -9.1645E-04 -1.0555E-03 -1.8281E-03
  49     0.0000E+00 -9.8036E-07 -2.0157E-06  9.8891E-07 -1.1559E-03 -3.1911E-03  1.5655E-03  3.2250E-06  3.5636E-06  7.3710E-06
  50     0.0000E+00 -2.0157E-06 -3.3079E-06  1.7128E-06 -3.1911E-03 -4.8406E-03  2.7116E-03  5.5858E-06  7.3710E-06  1.2075E-05
  51     0.0000E+00  9.8891E-07  1.7128E-06 -6.5689E-07  1.5655E-03  2.7116E-03 -6.4381E-04 -3.9390E-06 -2.8018E-06 -4.8528E-06
  52     0.0000E+00 -1.2006E-05 -2.5490E-05  1.2505E-05 -2.7042E-03 -7.8768E-03  3.8643E-03  3.0421E-05  3.3339E-05  7.1251E-05
  53     0.0000E+00 -2.5490E-05 -4.1440E-05  2.1660E-05 -7.8768E-03 -1.1800E-02  6.6932E-03  5.2690E-05  7.1251E-05  1.1561E-04
  54     0.0000E+00  1.2505E-05  2.1660E-05 -7.9153E-06  3.8643E-03  6.6932E-03 -1.4402E-03 -3.9356E-05 -2.5778E-05 -4.4650E-05
  55     4.1731E-06 -2.9798E-04 -6.9778E-04  3.4233E-04 -7.0193E-03 -2.3447E-02  1.1503E-02  4.7554E-04  5.0771E-04  1.1976E-03
  56     7.2280E-06 -6.9778E-04 -1.1037E-03  5.9293E-04 -2.3447E-02 -3.4094E-02  1.9924E-02  8.2366E-04  1.1976E-03  1.8906E-03
  57    -2.6352E-06  3.4233E-04  5.9293E-04 -1.8600E-04  1.1503E-02  1.9924E-02 -3.2566E-03 -7.2227E-04 -3.7133E-04 -6.4316E-04
  58     0.0000E+00 -8.1913E-07 -1.4188E-06  9.7088E-07 -7.0297E-04 -1.2176E-03  1.3205E-03  1.2473E-06  4.0802E-06  7.0671E-06
  59     0.0000E+00 -9.0886E-07 -1.8490E-06  7.2039E-07 -7.1879E-04 -1.9681E-03  4.7422E-04  4.0802E-06  2.7924E-06  5.7161E-06
  60     0.0000E+00 -1.8490E-06 -3.0439E-06  1.2478E-06 -1.9681E-03 -2.9914E-03  8.2137E-04  7.0671E-06  5.7161E-06  9.3928E-06
  61     0.0000E+00 -1.4430E-06 -1.8526E-06  1.0675E-06 -1.8286E-03 -1.4651E-03  1.1363E-03  3.2535E-06  5.6952E-06  7.2333E-06
  62     0.0000E+00  1.8526E-06  3.5822E-06 -1.8490E-06  1.4651E-03  3.5204E-03 -1.9681E-03 -5.6353E-06 -7.2333E-06 -1.4048E-05
  63     0.0000E+00 -7.1368E-06 -1.2361E-05  8.8339E-06 -1.6478E-03 -2.8540E-03  3.2449E-03  7.1691E-06  2.9221E-05  5.0612E-05
  64     0.0000E+00 -7.8716E-06 -1.6403E-05  6.1657E-06 -1.6660E-03 -4.7304E-03  1.0673E-03  2.9221E-05  1.8558E-05  3.8922E-05
  65     0.0000E+00 -1.6403E-05 -2.6813E-05  1.0679E-05 -4.7304E-03 -7.1282E-03  1.8486E-03  5.0612E-05  3.8922E-05  6.3501E-05
  66     0.0000E+00 -1.3027E-05 -1.6045E-05  9.4705E-06 -4.4675E-03 -3.3959E-03  2.7311E-03  2.2013E-05  4.0924E-05  4.9853E-05
  67     0.0000E+00  1.6045E-05  3.1554E-05 -1.6403E-05  3.3959E-03  8.3888E-03 -4.7304E-03 -3.8128E-05 -4.9853E-05 -9.8489E-05
  68     6.5393E-05 -1.2026E-03 -2.0830E-03  1.9486E-03 -1.0209E-02 -1.7683E-02  2.6403E-02 -2.0725E-04  2.7788E-03  4.8130E-03
  69     3.8738E-05 -1.2686E-03 -3.1241E-03  9.0300E-04 -9.5318E-03 -3.4237E-02  4.7517E-03  2.7788E-03  1.0512E-03  2.6084E-03
  70     6.7095E-05 -3.1241E-03 -4.8760E-03  1.5640E-03 -3.4237E-02 -4.9065E-02  8.2301E-03  4.8130E-03  2.6084E-03  4.0630E-03
  71     6.5795E-05 -2.7523E-03 -2.5859E-03  1.8037E-03 -3.5307E-02 -1.9429E-02  1.9767E-02  1.3950E-03  3.9663E-03  3.6830E-03
  72    -1.1396E-04  2.5859E-03  5.7383E-03 -3.1241E-03  1.9429E-02  5.7742E-02 -3.4237E-02 -2.4162E-03 -3.6830E-03 -8.2191E-03
  73     0.0000E+00 -2.6843E-05 -4.6493E-05  2.0943E-05 -2.8646E-03 -4.9617E-03  1.9002E-03  7.2469E-05  6.7362E-05  1.1667E-04
  74     0.0000E+00  2.3758E-06  5.4344E-06 -8.4881E-06 -5.1364E-05  2.8861E-04 -1.8077E-03  1.5151E-05 -2.1119E-05 -4.5867E-05
  75     0.0000E+00  5.4344E-06  8.6510E-06 -1.4702E-05  2.8861E-04  2.8189E-04 -3.1310E-03  2.6242E-05 -4.5867E-05 -7.4081E-05
  76     0.0000E+00 -2.5472E-05 -3.1364E-05  1.4183E-05 -3.7547E-03 -2.8532E-03  1.0551E-03  5.7268E-05  5.8753E-05  7.1549E-05
  77     0.0000E+00  3.1364E-05  6.1689E-05 -2.4565E-05  2.8532E-03  7.0493E-03 -1.8274E-03 -9.9192E-05 -7.1549E-05 -1.4137E-04
  78     0.0000E+00  3.6569E-05  6.3339E-05 -3.5583E-05  3.6719E-03  6.3600E-03 -4.4107E-03 -6.5017E-05 -1.1018E-04 -1.9083E-04
  79     0.0000E+00  9.1923E-06 -5.3072E-06  1.6005E-20  2.6306E-03 -1.5188E-03  4.9163E-18  5.1821E-20 -2.8704E-05  1.6572E-05

             21          22          23          24          25          26          27          28          29          30

  21    -1.7545E-06
  22     1.3848E-02  1.5989E-02
  23     0.0000E+00  0.0000E+00  0.0000E+00
  24     0.0000E+00  0.0000E+00  0.0000E+00  0.0000E+00
  25     0.0000E+00  0.0000E+00  0.0000E+00  0.0000E+00  0.0000E+00
  26     9.2553E-07  1.6031E-06  8.4759E-09 -9.3474E-08  1.0712E-06  2.8776E-04
  27     3.0570E-04  5.2949E-04  1.3962E-04 -7.2382E-04  1.7315E-03  1.2336E-02  5.9452E-02
  28     0.0000E+00  0.0000E+00  0.0000E+00  0.0000E+00  0.0000E+00 -1.0914E-07 -3.2947E-04  0.0000E+00
  29     0.0000E+00  0.0000E+00  0.0000E+00  0.0000E+00  0.0000E+00 -6.3013E-08 -1.9022E-04  0.0000E+00  0.0000E+00
  30     0.0000E+00  0.0000E+00  0.0000E+00  0.0000E+00  0.0000E+00  0.0000E+00  0.0000E+00  0.0000E+00  0.0000E+00  0.0000E+00
  31     0.0000E+00  0.0000E+00  0.0000E+00  0.0000E+00  0.0000E+00 -2.8584E-06 -2.0484E-03  0.0000E+00  0.0000E+00  0.0000E+00
  32     0.0000E+00  0.0000E+00  0.0000E+00  0.0000E+00  0.0000E+00 -1.6503E-06 -1.1826E-03  0.0000E+00  0.0000E+00  0.0000E+00
  33     0.0000E+00  0.0000E+00  0.0000E+00  0.0000E+00  0.0000E+00  0.0000E+00  0.0000E+00  0.0000E+00  0.0000E+00  0.0000E+00
  34    -2.8392E-06 -6.0748E-06 -9.6346E-08  9.4331E-07 -8.2472E-06 -1.1549E-03 -2.3492E-02 -1.0264E-06 -6.2056E-07  0.0000E+00
  35    -2.7964E-06 -2.8392E-06 -5.5625E-08  5.4462E-07 -4.7615E-06 -6.6677E-04 -1.3563E-02 -6.2056E-07 -3.0982E-07  0.0000E+00
  36     4.3522E-06  7.5382E-06  0.0000E+00  0.0000E+00  0.0000E+00  0.0000E+00  0.0000E+00  0.0000E+00  0.0000E+00  4.8460E-08
  37    -7.4729E-04 -2.3738E-03 -1.1287E-03  5.5778E-03 -1.2111E-02 -5.6637E-02 -1.5487E-01 -1.8476E-03 -1.2451E-03  0.0000E+00
  38    -1.5109E-03 -7.4729E-04 -6.5168E-04  3.2204E-03 -6.9921E-03 -3.2700E-02 -8.9413E-02 -1.2451E-03 -4.0989E-04  0.0000E+00
  39     1.9058E-03  3.3009E-03  0.0000E+00  0.0000E+00  0.0000E+00  0.0000E+00  0.0000E+00  0.0000E+00  0.0000E+00  3.0896E-04
  40     8.3568E-06  1.4474E-05 -5.2043E-07  4.4750E-06 -2.8843E-05 -1.9365E-03 -1.8210E-02 -4.5441E-06 -2.6236E-06  0.0000E+00
  41    -1.5087E-05 -3.2510E-05  0.0000E+00  0.0000E+00  0.0000E+00  0.0000E+00  0.0000E+00  0.0000E+00  0.0000E+00 -6.0306E-07
  42    -1.5089E-05 -1.5087E-05  0.0000E+00  0.0000E+00  0.0000E+00  0.0000E+00  0.0000E+00  0.0000E+00  0.0000E+00 -3.4818E-07
  43    -1.3307E-09  1.0503E-05  4.5071E-07 -3.8754E-06  2.4979E-05  1.6771E-03  1.5771E-02  3.6338E-06  2.7943E-06  0.0000E+00
  44     1.0503E-05  1.2126E-05  7.8065E-07 -6.7125E-06  4.3264E-05  2.9048E-03  2.7315E-02  6.9903E-06  3.6338E-06  0.0000E+00
  45     0.0000E+00  0.0000E+00  0.0000E+00  0.0000E+00  0.0000E+00  0.0000E+00  1.8691E-05  0.0000E+00  0.0000E+00  0.0000E+00
  46     0.0000E+00  0.0000E+00  0.0000E+00  0.0000E+00  0.0000E+00  0.0000E+00  4.2402E-05  0.0000E+00  0.0000E+00  0.0000E+00
  47    -3.9760E-06  6.8867E-06  0.0000E+00  0.0000E+00  0.0000E+00  2.4433E-07  5.3612E-04  0.0000E+00  0.0000E+00  0.0000E+00
  48    -1.2421E-03  2.1514E-03  1.4342E-06 -8.4618E-06  2.6571E-05  5.3517E-04  8.3221E-03  2.9300E-06  5.0749E-06  2.4897E-06
  49     5.8227E-06 -7.2638E-06  0.0000E+00  0.0000E+00  0.0000E+00 -3.1712E-07 -4.0325E-04  0.0000E+00  0.0000E+00  0.0000E+00
  50     7.2638E-06 -1.4210E-05  0.0000E+00  0.0000E+00  0.0000E+00 -5.4926E-07 -6.9844E-04  0.0000E+00  0.0000E+00  0.0000E+00
  51    -4.2557E-06  7.3710E-06  0.0000E+00  0.0000E+00  0.0000E+00 -2.6947E-07 -3.4265E-04  0.0000E+00  0.0000E+00  0.0000E+00
  52     5.7588E-05 -6.7956E-05  0.0000E+00  0.0000E+00  0.0000E+00 -5.0560E-06 -1.2369E-03  0.0000E+00  0.0000E+00  0.0000E+00
  53     6.7956E-05 -1.3606E-04  0.0000E+00  0.0000E+00  0.0000E+00 -8.7572E-06 -2.1424E-03  0.0000E+00  0.0000E+00  0.0000E+00
  54    -4.1137E-05  7.1251E-05  0.0000E+00  0.0000E+00  0.0000E+00 -4.2963E-06 -1.0510E-03  0.0000E+00  0.0000E+00  0.0000E+00
  55     1.0299E-03 -1.0349E-03 -1.2975E-07  9.1019E-07 -4.1025E-06 -2.1613E-04 -5.3371E-03 -3.4920E-07 -7.2993E-07 -3.5810E-07
  56     1.0349E-03 -2.2249E-03 -2.2474E-07  1.5765E-06 -7.1057E-06 -3.7436E-04 -9.2442E-03 -7.2993E-07 -1.1920E-06 -6.2025E-07
  57    -6.9142E-04  1.1976E-03 -1.1026E-07  7.7343E-07 -3.4860E-06 -1.8366E-04 -4.5352E-03 -3.5810E-07 -6.2025E-07 -2.3207E-07
  58     3.2535E-06 -5.6353E-06  0.0000E+00  0.0000E+00  0.0000E+00 -2.3491E-07 -2.4078E-04  0.0000E+00  0.0000E+00  0.0000E+00
  59     5.6952E-06 -7.2333E-06  0.0000E+00  0.0000E+00  0.0000E+00  2.7054E-07  2.7731E-04  0.0000E+00  0.0000E+00  0.0000E+00
  60     7.2333E-06 -1.4048E-05  0.0000E+00  0.0000E+00  0.0000E+00  4.6859E-07  4.8031E-04  0.0000E+00  0.0000E+00  0.0000E+00
  61     2.3707E-06 -1.0061E-05  0.0000E+00  0.0000E+00  0.0000E+00 -3.1838E-07 -3.2634E-04  0.0000E+00  0.0000E+00  0.0000E+00
  62    -1.0061E-05  1.3988E-05  0.0000E+00  0.0000E+00  0.0000E+00  5.5146E-07  5.6524E-04  0.0000E+00  0.0000E+00  0.0000E+00
  63     2.2013E-05 -3.8128E-05  0.0000E+00  0.0000E+00  0.0000E+00 -2.5374E-06 -6.7298E-04  0.0000E+00  0.0000E+00  0.0000E+00
  64     4.0924E-05 -4.9853E-05  0.0000E+00  0.0000E+00  0.0000E+00  2.9223E-06  7.7506E-04  0.0000E+00  0.0000E+00  0.0000E+00
  65     4.9853E-05 -9.8489E-05  0.0000E+00  0.0000E+00  0.0000E+00  5.0615E-06  1.3424E-03  0.0000E+00  0.0000E+00  0.0000E+00
  66     1.3683E-05 -7.1043E-05  0.0000E+00  0.0000E+00  0.0000E+00 -3.4390E-06 -9.1212E-04  0.0000E+00  0.0000E+00  0.0000E+00
  67    -7.1043E-05  9.5717E-05  0.0000E+00  0.0000E+00  0.0000E+00  5.9566E-06  1.5798E-03  0.0000E+00  0.0000E+00  0.0000E+00
[...]
  58     0.0000E+00  0.0000E+00  0.0000E+00  0.0000E+00  0.0000E+00  0.0000E+00  0.0000E+00  0.0000E+00  0.0000E+00  0.0000E+00
  59     0.0000E+00  0.0000E+00  0.0000E+00  0.0000E+00  0.0000E+00  0.0000E+00  0.0000E+00  0.0000E+00  0.0000E+00  0.0000E+00
  60     0.0000E+00  0.0000E+00  0.0000E+00  0.0000E+00  0.0000E+00  0.0000E+00  0.0000E+00  0.0000E+00  0.0000E+00  0.0000E+00
  61     0.0000E+00  0.0000E+00  0.0000E+00  0.0000E+00  0.0000E+00  0.0000E+00  0.0000E+00  0.0000E+00  0.0000E+00  0.0000E+00
  62     0.0000E+00  0.0000E+00  0.0000E+00  0.0000E+00  0.0000E+00  0.0000E+00  0.0000E+00  0.0000E+00  0.0000E+00  0.0000E+00
  63     0.0000E+00  0.0000E+00  0.0000E+00  0.0000E+00  0.0000E+00  0.0000E+00  0.0000E+00  0.0000E+00  0.0000E+00  0.0000E+00
  64     0.0000E+00  0.0000E+00  0.0000E+00  0.0000E+00  0.0000E+00  0.0000E+00  0.0000E+00  0.0000E+00  0.0000E+00  0.0000E+00
  65     0.0000E+00  0.0000E+00  0.0000E+00  0.0000E+00  0.0000E+00  0.0000E+00  0.0000E+00  0.0000E+00  0.0000E+00  0.0000E+00
  66     0.0000E+00  0.0000E+00  0.0000E+00  0.0000E+00  0.0000E+00  0.0000E+00  0.0000E+00  0.0000E+00  0.0000E+00  0.0000E+00
  67     0.0000E+00  0.0000E+00  0.0000E+00  0.0000E+00  0.0000E+00  0.0000E+00  0.0000E+00  0.0000E+00  0.0000E+00  0.0000E+00
  68     0.0000E+00  0.0000E+00  0.0000E+00  0.0000E+00  0.0000E+00  0.0000E+00  0.0000E+00  0.0000E+00  0.0000E+00  0.0000E+00
  69     0.0000E+00  0.0000E+00  0.0000E+00  0.0000E+00  0.0000E+00  0.0000E+00  0.0000E+00  0.0000E+00  0.0000E+00  0.0000E+00
  70     0.0000E+00  0.0000E+00  0.0000E+00  0.0000E+00  0.0000E+00  0.0000E+00  0.0000E+00  0.0000E+00  0.0000E+00  0.0000E+00
  71     0.0000E+00  0.0000E+00  0.0000E+00  0.0000E+00  0.0000E+00  0.0000E+00  0.0000E+00  0.0000E+00  0.0000E+00  0.0000E+00
  72     0.0000E+00  0.0000E+00  0.0000E+00  0.0000E+00  0.0000E+00  0.0000E+00  0.0000E+00  0.0000E+00  0.0000E+00  0.0000E+00
  73     0.0000E+00  0.0000E+00  0.0000E+00  0.0000E+00  0.0000E+00  0.0000E+00  0.0000E+00  0.0000E+00  0.0000E+00  0.0000E+00
  74     0.0000E+00  0.0000E+00  0.0000E+00  0.0000E+00  0.0000E+00  0.0000E+00  0.0000E+00  0.0000E+00  0.0000E+00  0.0000E+00
  75     0.0000E+00  0.0000E+00  0.0000E+00  0.0000E+00  0.0000E+00  0.0000E+00  0.0000E+00  0.0000E+00  0.0000E+00  0.0000E+00
  76     0.0000E+00  0.0000E+00  0.0000E+00  0.0000E+00  0.0000E+00  0.0000E+00  0.0000E+00  0.0000E+00  0.0000E+00  0.0000E+00
  77     0.0000E+00  0.0000E+00  0.0000E+00  0.0000E+00  0.0000E+00  0.0000E+00  0.0000E+00  0.0000E+00  0.0000E+00  0.0000E+00
  78     0.0000E+00  0.0000E+00  0.0000E+00  0.0000E+00  0.0000E+00  0.0000E+00  0.0000E+00  0.0000E+00  0.0000E+00  0.0000E+00
  79     0.0000E+00  0.0000E+00  0.0000E+00  0.0000E+00  0.0000E+00  0.0000E+00  0.0000E+00  0.0000E+00  0.0000E+00  0.0000E+00

             31          32          33          34          35          36          37          38          39          40

  31     0.0000E+00
  32     0.0000E+00  0.0000E+00
  33     0.0000E+00  0.0000E+00  0.0000E+00
  34     0.0000E+00  0.0000E+00  0.0000E+00  0.0000E+00
  35     0.0000E+00  0.0000E+00  0.0000E+00  0.0000E+00  0.0000E+00
  36     0.0000E+00  0.0000E+00  0.0000E+00  0.0000E+00  0.0000E+00  0.0000E+00
  37     0.0000E+00  0.0000E+00  0.0000E+00  0.0000E+00  0.0000E+00  0.0000E+00  0.0000E+00
  38     0.0000E+00  0.0000E+00  0.0000E+00  0.0000E+00  0.0000E+00  0.0000E+00  0.0000E+00  0.0000E+00
  39     0.0000E+00  0.0000E+00  0.0000E+00  0.0000E+00  0.0000E+00  0.0000E+00  0.0000E+00  0.0000E+00  0.0000E+00
  40     0.0000E+00  0.0000E+00  0.0000E+00  0.0000E+00  0.0000E+00  0.0000E+00  0.0000E+00  0.0000E+00  0.0000E+00  0.0000E+00
  41     0.0000E+00  0.0000E+00  0.0000E+00  0.0000E+00  0.0000E+00  0.0000E+00  0.0000E+00  0.0000E+00  0.0000E+00  0.0000E+00
  42     0.0000E+00  0.0000E+00  0.0000E+00  0.0000E+00  0.0000E+00  0.0000E+00  0.0000E+00  0.0000E+00  0.0000E+00  0.0000E+00
  43     0.0000E+00  0.0000E+00  0.0000E+00  0.0000E+00  0.0000E+00  0.0000E+00  0.0000E+00  0.0000E+00  0.0000E+00  0.0000E+00
  44     0.0000E+00  0.0000E+00  0.0000E+00  0.0000E+00  0.0000E+00  0.0000E+00  0.0000E+00  0.0000E+00  0.0000E+00  0.0000E+00
  45     0.0000E+00  0.0000E+00  0.0000E+00  0.0000E+00  0.0000E+00  0.0000E+00  0.0000E+00  0.0000E+00  0.0000E+00  0.0000E+00
  46     0.0000E+00  0.0000E+00  0.0000E+00  0.0000E+00  0.0000E+00  0.0000E+00  0.0000E+00  0.0000E+00  0.0000E+00  0.0000E+00
  47     0.0000E+00  0.0000E+00  0.0000E+00  0.0000E+00  0.0000E+00  0.0000E+00  0.0000E+00  0.0000E+00  0.0000E+00  0.0000E+00
  48     0.0000E+00  0.0000E+00  0.0000E+00  0.0000E+00  0.0000E+00  0.0000E+00  0.0000E+00  0.0000E+00  0.0000E+00  0.0000E+00
  49     0.0000E+00  0.0000E+00  0.0000E+00  0.0000E+00  0.0000E+00  0.0000E+00  0.0000E+00  0.0000E+00  0.0000E+00  0.0000E+00
  50     0.0000E+00  0.0000E+00  0.0000E+00  0.0000E+00  0.0000E+00  0.0000E+00  0.0000E+00  0.0000E+00  0.0000E+00  0.0000E+00
  51     0.0000E+00  0.0000E+00  0.0000E+00  0.0000E+00  0.0000E+00  0.0000E+00  0.0000E+00  0.0000E+00  0.0000E+00  0.0000E+00
  52     0.0000E+00  0.0000E+00  0.0000E+00  0.0000E+00  0.0000E+00  0.0000E+00  0.0000E+00  0.0000E+00  0.0000E+00  0.0000E+00
  53     0.0000E+00  0.0000E+00  0.0000E+00  0.0000E+00  0.0000E+00  0.0000E+00  0.0000E+00  0.0000E+00  0.0000E+00  0.0000E+00
  54     0.0000E+00  0.0000E+00  0.0000E+00  0.0000E+00  0.0000E+00  0.0000E+00  0.0000E+00  0.0000E+00  0.0000E+00  0.0000E+00
  55     0.0000E+00  0.0000E+00  0.0000E+00  0.0000E+00  0.0000E+00  0.0000E+00  0.0000E+00  0.0000E+00  0.0000E+00  0.0000E+00
  56     0.0000E+00  0.0000E+00  0.0000E+00  0.0000E+00  0.0000E+00  0.0000E+00  0.0000E+00  0.0000E+00  0.0000E+00  0.0000E+00
  57     0.0000E+00  0.0000E+00  0.0000E+00  0.0000E+00  0.0000E+00  0.0000E+00  0.0000E+00  0.0000E+00  0.0000E+00  0.0000E+00
  58     0.0000E+00  0.0000E+00  0.0000E+00  0.0000E+00  0.0000E+00  0.0000E+00  0.0000E+00  0.0000E+00  0.0000E+00  0.0000E+00
  59     0.0000E+00  0.0000E+00  0.0000E+00  0.0000E+00  0.0000E+00  0.0000E+00  0.0000E+00  0.0000E+00  0.0000E+00  0.0000E+00
  60     0.0000E+00  0.0000E+00  0.0000E+00  0.0000E+00  0.0000E+00  0.0000E+00  0.0000E+00  0.0000E+00  0.0000E+00  0.0000E+00
  61     0.0000E+00  0.0000E+00  0.0000E+00  0.0000E+00  0.0000E+00  0.0000E+00  0.0000E+00  0.0000E+00  0.0000E+00  0.0000E+00
  62     0.0000E+00  0.0000E+00  0.0000E+00  0.0000E+00  0.0000E+00  0.0000E+00  0.0000E+00  0.0000E+00  0.0000E+00  0.0000E+00
  63     0.0000E+00  0.0000E+00  0.0000E+00  0.0000E+00  0.0000E+00  0.0000E+00  0.0000E+00  0.0000E+00  0.0000E+00  0.0000E+00
  64     0.0000E+00  0.0000E+00  0.0000E+00  0.0000E+00  0.0000E+00  0.0000E+00  0.0000E+00  0.0000E+00  0.0000E+00  0.0000E+00
  65     0.0000E+00  0.0000E+00  0.0000E+00  0.0000E+00  0.0000E+00  0.0000E+00  0.0000E+00  0.0000E+00  0.0000E+00  0.0000E+00
  66     0.0000E+00  0.0000E+00  0.0000E+00  0.0000E+00  0.0000E+00  0.0000E+00  0.0000E+00  0.0000E+00  0.0000E+00  0.0000E+00
  67     0.0000E+00  0.0000E+00  0.0000E+00  0.0000E+00  0.0000E+00  0.0000E+00  0.0000E+00  0.0000E+00  0.0000E+00  0.0000E+00
  68     0.0000E+00  0.0000E+00  0.0000E+00  0.0000E+00  0.0000E+00  0.0000E+00  0.0000E+00  0.0000E+00  0.0000E+00  0.0000E+00
  69     0.0000E+00  0.0000E+00  0.0000E+00  0.0000E+00  0.0000E+00  0.0000E+00  0.0000E+00  0.0000E+00  0.0000E+00  0.0000E+00
  70     0.0000E+00  0.0000E+00  0.0000E+00  0.0000E+00  0.0000E+00  0.0000E+00  0.0000E+00  0.0000E+00  0.0000E+00  0.0000E+00
  71     0.0000E+00  0.0000E+00  0.0000E+00  0.0000E+00  0.0000E+00  0.0000E+00  0.0000E+00  0.0000E+00  0.0000E+00  0.0000E+00
  72     0.0000E+00  0.0000E+00  0.0000E+00  0.0000E+00  0.0000E+00  0.0000E+00  0.0000E+00  0.0000E+00  0.0000E+00  0.0000E+00
  73     0.0000E+00  0.0000E+00  0.0000E+00  0.0000E+00  0.0000E+00  0.0000E+00  0.0000E+00  0.0000E+00  0.0000E+00  0.0000E+00
  74     0.0000E+00  0.0000E+00  0.0000E+00  0.0000E+00  0.0000E+00  0.0000E+00  0.0000E+00  0.0000E+00  0.0000E+00  0.0000E+00
  75     0.0000E+00  0.0000E+00  0.0000E+00  0.0000E+00  0.0000E+00  0.0000E+00  0.0000E+00  0.0000E+00  0.0000E+00  0.0000E+00
  76     0.0000E+00  0.0000E+00  0.0000E+00  0.0000E+00  0.0000E+00  0.0000E+00  0.0000E+00  0.0000E+00  0.0000E+00  0.0000E+00
  77     0.0000E+00  0.0000E+00  0.0000E+00  0.0000E+00  0.0000E+00  0.0000E+00  0.0000E+00  0.0000E+00  0.0000E+00  0.0000E+00
  78     0.0000E+00  0.0000E+00  0.0000E+00  0.0000E+00  0.0000E+00  0.0000E+00  0.0000E+00  0.0000E+00  0.0000E+00  0.0000E+00
  79     0.0000E+00  0.0000E+00  0.0000E+00  0.0000E+00  0.0000E+00  0.0000E+00  0.0000E+00  0.0000E+00  0.0000E+00  0.0000E+00

             41          42          43          44          45          46          47          48          49          50

  41     0.0000E+00
  42     0.0000E+00  0.0000E+00
  43     0.0000E+00  0.0000E+00  0.0000E+00
  44     0.0000E+00  0.0000E+00  0.0000E+00  0.0000E+00
  45     0.0000E+00  0.0000E+00  0.0000E+00  0.0000E+00  0.0000E+00
  46     0.0000E+00  0.0000E+00  0.0000E+00  0.0000E+00  0.0000E+00  0.0000E+00
  47     0.0000E+00  0.0000E+00  0.0000E+00  0.0000E+00  0.0000E+00  0.0000E+00  0.0000E+00
  48     0.0000E+00  0.0000E+00  0.0000E+00  0.0000E+00  0.0000E+00  0.0000E+00  0.0000E+00  0.0000E+00
  49     0.0000E+00  0.0000E+00  0.0000E+00  0.0000E+00  0.0000E+00  0.0000E+00  0.0000E+00  0.0000E+00  0.0000E+00
  50     0.0000E+00  0.0000E+00  0.0000E+00  0.0000E+00  0.0000E+00  0.0000E+00  0.0000E+00  0.0000E+00  0.0000E+00  0.0000E+00
  51     0.0000E+00  0.0000E+00  0.0000E+00  0.0000E+00  0.0000E+00  0.0000E+00  0.0000E+00  0.0000E+00  0.0000E+00  0.0000E+00
  52     0.0000E+00  0.0000E+00  0.0000E+00  0.0000E+00  0.0000E+00  0.0000E+00  0.0000E+00  0.0000E+00  0.0000E+00  0.0000E+00
  53     0.0000E+00  0.0000E+00  0.0000E+00  0.0000E+00  0.0000E+00  0.0000E+00  0.0000E+00  0.0000E+00  0.0000E+00  0.0000E+00
  54     0.0000E+00  0.0000E+00  0.0000E+00  0.0000E+00  0.0000E+00  0.0000E+00  0.0000E+00  0.0000E+00  0.0000E+00  0.0000E+00
  55     0.0000E+00  0.0000E+00  0.0000E+00  0.0000E+00  0.0000E+00  0.0000E+00  0.0000E+00  0.0000E+00  0.0000E+00  0.0000E+00
  56     0.0000E+00  0.0000E+00  0.0000E+00  0.0000E+00  0.0000E+00  0.0000E+00  0.0000E+00  0.0000E+00  0.0000E+00  0.0000E+00
  57     0.0000E+00  0.0000E+00  0.0000E+00  0.0000E+00  0.0000E+00  0.0000E+00  0.0000E+00  0.0000E+00  0.0000E+00  0.0000E+00
  58     0.0000E+00  0.0000E+00  0.0000E+00  0.0000E+00  0.0000E+00  0.0000E+00  0.0000E+00  0.0000E+00  0.0000E+00  0.0000E+00
  59     0.0000E+00  0.0000E+00  0.0000E+00  0.0000E+00  0.0000E+00  0.0000E+00  0.0000E+00  0.0000E+00  0.0000E+00  0.0000E+00
  60     0.0000E+00  0.0000E+00  0.0000E+00  0.0000E+00  0.0000E+00  0.0000E+00  0.0000E+00  0.0000E+00  0.0000E+00  0.0000E+00
  61     0.0000E+00  0.0000E+00  0.0000E+00  0.0000E+00  0.0000E+00  0.0000E+00  0.0000E+00  0.0000E+00  0.0000E+00  0.0000E+00
  62     0.0000E+00  0.0000E+00  0.0000E+00  0.0000E+00  0.0000E+00  0.0000E+00  0.0000E+00  0.0000E+00  0.0000E+00  0.0000E+00
  63     0.0000E+00  0.0000E+00  0.0000E+00  0.0000E+00  0.0000E+00  0.0000E+00  0.0000E+00  0.0000E+00  0.0000E+00  0.0000E+00
  64     0.0000E+00  0.0000E+00  0.0000E+00  0.0000E+00  0.0000E+00  0.0000E+00  0.0000E+00  0.0000E+00  0.0000E+00  0.0000E+00
  65     0.0000E+00  0.0000E+00  0.0000E+00  0.0000E+00  0.0000E+00  0.0000E+00  0.0000E+00  0.0000E+00  0.0000E+00  0.0000E+00
  66     0.0000E+00  0.0000E+00  0.0000E+00  0.0000E+00  0.0000E+00  0.0000E+00  0.0000E+00  0.0000E+00  0.0000E+00  0.0000E+00
  67     0.0000E+00  0.0000E+00  0.0000E+00  0.0000E+00  0.0000E+00  0.0000E+00  0.0000E+00  0.0000E+00  0.0000E+00  0.0000E+00
  68     0.0000E+00  0.0000E+00  0.0000E+00  0.0000E+00  0.0000E+00  0.0000E+00  0.0000E+00  0.0000E+00  0.0000E+00  0.0000E+00
  69     0.0000E+00  0.0000E+00  0.0000E+00  0.0000E+00  0.0000E+00  0.0000E+00  0.0000E+00  0.0000E+00  0.0000E+00  0.0000E+00
  70     0.0000E+00  0.0000E+00  0.0000E+00  0.0000E+00  0.0000E+00  0.0000E+00  0.0000E+00  0.0000E+00  0.0000E+00  0.0000E+00
  71     0.0000E+00  0.0000E+00  0.0000E+00  0.0000E+00  0.0000E+00  0.0000E+00  0.0000E+00  0.0000E+00  0.0000E+00  0.0000E+00
  72     0.0000E+00  0.0000E+00  0.0000E+00  0.0000E+00  0.0000E+00  0.0000E+00  0.0000E+00  0.0000E+00  0.0000E+00  0.0000E+00
  73     0.0000E+00  0.0000E+00  0.0000E+00  0.0000E+00  0.0000E+00  0.0000E+00  0.0000E+00  0.0000E+00  0.0000E+00  0.0000E+00
  74     0.0000E+00  0.0000E+00  0.0000E+00  0.0000E+00  0.0000E+00  0.0000E+00  0.0000E+00  0.0000E+00  0.0000E+00  0.0000E+00
  75     0.0000E+00  0.0000E+00  0.0000E+00  0.0000E+00  0.0000E+00  0.0000E+00  0.0000E+00  0.0000E+00  0.0000E+00  0.0000E+00
  76     0.0000E+00  0.0000E+00  0.0000E+00  0.0000E+00  0.0000E+00  0.0000E+00  0.0000E+00  0.0000E+00  0.0000E+00  0.0000E+00
  77     0.0000E+00  0.0000E+00  0.0000E+00  0.0000E+00  0.0000E+00  0.0000E+00  0.0000E+00  0.0000E+00  0.0000E+00  0.0000E+00
  78     0.0000E+00  0.0000E+00  0.0000E+00  0.0000E+00  0.0000E+00  0.0000E+00  0.0000E+00  0.0000E+00  0.0000E+00  0.0000E+00
  79     0.0000E+00  0.0000E+00  0.0000E+00  0.0000E+00  0.0000E+00  0.0000E+00  0.0000E+00  0.0000E+00  0.0000E+00  0.0000E+00

             51          52          53          54          55          56          57          58          59          60

  51     0.0000E+00
  52     0.0000E+00  0.0000E+00
  53     0.0000E+00  0.0000E+00  0.0000E+00
  54     0.0000E+00  0.0000E+00  0.0000E+00  0.0000E+00
  55     0.0000E+00  0.0000E+00  0.0000E+00  0.0000E+00  0.0000E+00
  56     0.0000E+00  0.0000E+00  0.0000E+00  0.0000E+00  0.0000E+00  0.0000E+00
  57     0.0000E+00  0.0000E+00  0.0000E+00  0.0000E+00  0.0000E+00  0.0000E+00  0.0000E+00
  58     0.0000E+00  0.0000E+00  0.0000E+00  0.0000E+00  0.0000E+00  0.0000E+00  0.0000E+00  0.0000E+00
  59     0.0000E+00  0.0000E+00  0.0000E+00  0.0000E+00  0.0000E+00  0.0000E+00  0.0000E+00  0.0000E+00  0.0000E+00
  60     0.0000E+00  0.0000E+00  0.0000E+00  0.0000E+00  0.0000E+00  0.0000E+00  0.0000E+00  0.0000E+00  0.0000E+00  0.0000E+00
  61     0.0000E+00  0.0000E+00  0.0000E+00  0.0000E+00  0.0000E+00  0.0000E+00  0.0000E+00  0.0000E+00  0.0000E+00  0.0000E+00
  62     0.0000E+00  0.0000E+00  0.0000E+00  0.0000E+00  0.0000E+00  0.0000E+00  0.0000E+00  0.0000E+00  0.0000E+00  0.0000E+00
  63     0.0000E+00  0.0000E+00  0.0000E+00  0.0000E+00  0.0000E+00  0.0000E+00  0.0000E+00  0.0000E+00  0.0000E+00  0.0000E+00
  64     0.0000E+00  0.0000E+00  0.0000E+00  0.0000E+00  0.0000E+00  0.0000E+00  0.0000E+00  0.0000E+00  0.0000E+00  0.0000E+00
  65     0.0000E+00  0.0000E+00  0.0000E+00  0.0000E+00  0.0000E+00  0.0000E+00  0.0000E+00  0.0000E+00  0.0000E+00  0.0000E+00
  66     0.0000E+00  0.0000E+00  0.0000E+00  0.0000E+00  0.0000E+00  0.0000E+00  0.0000E+00  0.0000E+00  0.0000E+00  0.0000E+00
  67     0.0000E+00  0.0000E+00  0.0000E+00  0.0000E+00  0.0000E+00  0.0000E+00  0.0000E+00  0.0000E+00  0.0000E+00  0.0000E+00
  68     0.0000E+00  0.0000E+00  0.0000E+00  0.0000E+00  0.0000E+00  0.0000E+00  0.0000E+00  0.0000E+00  0.0000E+00  0.0000E+00
  69     0.0000E+00  0.0000E+00  0.0000E+00  0.0000E+00  0.0000E+00  0.0000E+00  0.0000E+00  0.0000E+00  0.0000E+00  0.0000E+00
  70     0.0000E+00  0.0000E+00  0.0000E+00  0.0000E+00  0.0000E+00  0.0000E+00  0.0000E+00  0.0000E+00  0.0000E+00  0.0000E+00
  71     0.0000E+00  0.0000E+00  0.0000E+00  0.0000E+00  0.0000E+00  0.0000E+00  0.0000E+00  0.0000E+00  0.0000E+00  0.0000E+00
  72     0.0000E+00  0.0000E+00  0.0000E+00  0.0000E+00  0.0000E+00  0.0000E+00  0.0000E+00  0.0000E+00  0.0000E+00  0.0000E+00
  73     0.0000E+00  0.0000E+00  0.0000E+00  0.0000E+00  0.0000E+00  0.0000E+00  0.0000E+00  0.0000E+00  0.0000E+00  0.0000E+00
  74     0.0000E+00  0.0000E+00  0.0000E+00  0.0000E+00  0.0000E+00  0.0000E+00  0.0000E+00  0.0000E+00  0.0000E+00  0.0000E+00
  75     0.0000E+00  0.0000E+00  0.0000E+00  0.0000E+00  0.0000E+00  0.0000E+00  0.0000E+00  0.0000E+00  0.0000E+00  0.0000E+00
  76     0.0000E+00  0.0000E+00  0.0000E+00  0.0000E+00  0.0000E+00  0.0000E+00  0.0000E+00  0.0000E+00  0.0000E+00  0.0000E+00
  77     0.0000E+00  0.0000E+00  0.0000E+00  0.0000E+00  0.0000E+00  0.0000E+00  0.0000E+00  0.0000E+00  0.0000E+00  0.0000E+00
  78     0.0000E+00  0.0000E+00  0.0000E+00  0.0000E+00  0.0000E+00  0.0000E+00  0.0000E+00  0.0000E+00  0.0000E+00  0.0000E+00
  79     0.0000E+00  0.0000E+00  0.0000E+00  0.0000E+00  0.0000E+00  0.0000E+00  0.0000E+00  0.0000E+00  0.0000E+00  0.0000E+00

             61          62          63          64          65          66          67          68          69          70

  61     0.0000E+00
  62     0.0000E+00  0.0000E+00
  63     0.0000E+00  0.0000E+00  0.0000E+00
  64     0.0000E+00  0.0000E+00  0.0000E+00  0.0000E+00
  65     0.0000E+00  0.0000E+00  0.0000E+00  0.0000E+00  0.0000E+00
  66     0.0000E+00  0.0000E+00  0.0000E+00  0.0000E+00  0.0000E+00  0.0000E+00
  67     0.0000E+00  0.0000E+00  0.0000E+00  0.0000E+00  0.0000E+00  0.0000E+00  0.0000E+00
  68     0.0000E+00  0.0000E+00  0.0000E+00  0.0000E+00  0.0000E+00  0.0000E+00  0.0000E+00  0.0000E+00
  69     0.0000E+00  0.0000E+00  0.0000E+00  0.0000E+00  0.0000E+00  0.0000E+00  0.0000E+00  0.0000E+00  0.0000E+00
  70     0.0000E+00  0.0000E+00  0.0000E+00  0.0000E+00  0.0000E+00  0.0000E+00  0.0000E+00  0.0000E+00  0.0000E+00  0.0000E+00
  71     0.0000E+00  0.0000E+00  0.0000E+00  0.0000E+00  0.0000E+00  0.0000E+00  0.0000E+00  0.0000E+00  0.0000E+00  0.0000E+00
  72     0.0000E+00  0.0000E+00  0.0000E+00  0.0000E+00  0.0000E+00  0.0000E+00  0.0000E+00  0.0000E+00  0.0000E+00  0.0000E+00
  73     0.0000E+00  0.0000E+00  0.0000E+00  0.0000E+00  0.0000E+00  0.0000E+00  0.0000E+00  0.0000E+00  0.0000E+00  0.0000E+00
  74     0.0000E+00  0.0000E+00  0.0000E+00  0.0000E+00  0.0000E+00  0.0000E+00  0.0000E+00  0.0000E+00  0.0000E+00  0.0000E+00
  75     0.0000E+00  0.0000E+00  0.0000E+00  0.0000E+00  0.0000E+00  0.0000E+00  0.0000E+00  0.0000E+00  0.0000E+00  0.0000E+00
  76     0.0000E+00  0.0000E+00  0.0000E+00  0.0000E+00  0.0000E+00  0.0000E+00  0.0000E+00  0.0000E+00  0.0000E+00  0.0000E+00
  77     0.0000E+00  0.0000E+00  0.0000E+00  0.0000E+00  0.0000E+00  0.0000E+00  0.0000E+00  0.0000E+00  0.0000E+00  0.0000E+00
  78     0.0000E+00  0.0000E+00  0.0000E+00  0.0000E+00  0.0000E+00  0.0000E+00  0.0000E+00  0.0000E+00  0.0000E+00  0.0000E+00
  79     0.0000E+00  0.0000E+00  0.0000E+00  0.0000E+00  0.0000E+00  0.0000E+00  0.0000E+00  0.0000E+00  0.0000E+00  0.0000E+00

             71          72          73          74          75          76          77          78          79
  71     0.0000E+00
  72     0.0000E+00  0.0000E+00
  73     0.0000E+00  0.0000E+00  0.0000E+00
  74     0.0000E+00  0.0000E+00  0.0000E+00  0.0000E+00
  75     0.0000E+00  0.0000E+00  0.0000E+00  0.0000E+00  0.0000E+00
  76     0.0000E+00  0.0000E+00  0.0000E+00  0.0000E+00  0.0000E+00  0.0000E+00
  77     0.0000E+00  0.0000E+00  0.0000E+00  0.0000E+00  0.0000E+00  0.0000E+00  0.0000E+00
  78     0.0000E+00  0.0000E+00  0.0000E+00  0.0000E+00  0.0000E+00  0.0000E+00  0.0000E+00  0.0000E+00
  79     0.0000E+00  0.0000E+00  0.0000E+00  0.0000E+00  0.0000E+00  0.0000E+00  0.0000E+00  0.0000E+00  0.0000E+00
 TTTTTTTTTTTTTTTTTTTTTTTTTTTTTT BASISSET    TELAPSE        0.41 TCPU        0.41
 ENDPROP   
 TTTTTTTTTTTTTTTTTTTTTTTTTTTTTT END         TELAPSE        0.41 TCPU        0.41
 EEEEEEEEEE TERMINATION  DATE 24 10 2022 TIME 15:14:10.2
Mon Oct 24 15:14:10 CEST 2022
Contents of temporary directory:
total 1808
-rw-r--r-- 1 antonio antonio 199616 Oct 24 15:14 fort.11
-rw-r--r-- 1 antonio antonio 801424 Oct 24 15:14 fort.13
-rw-r--r-- 1 antonio antonio 199616 Oct 24 15:14 fort.3
-rwxr-xr-x 1 antonio antonio 289960 Oct 24 15:14 fort.9
file fort.13 saved as /mnt/c/Users/garci/Documents/PhD/Contenido/Crystal/utils17/MoS2_base.f13
removing temporary directories /home/antonio/tmp/tmp_p360_antonio
